  MPI-parallelism will be employed.
------------------------------------------------------------
          Invoking FHI-aims ...
          Version 052014
          Git rev. (modified): 096c982 Merge branch master of fhiaims:/pub/localo[...]
          Compiled on 2016/12/16 at 15:22:01 on host login02.hpc.iitd.ac.in.

          When using FHI-aims, please cite the following reference:

          Volker Blum, Ralf Gehrke, Felix Hanke, Paula Havu,
          Ville Havu, Xinguo Ren, Karsten Reuter, and Matthias Scheffler,
          'Ab Initio Molecular Simulations with Numeric Atom-Centered Orbitals: FHI-aims',
          Computer Physics Communications 180, 2175-2196 (2009)

          For any questions about FHI-aims, please visit the aimsclub website
          with its forums and wiki. Contributions to both the forums and the
          wiki are warmly encouraged - they are for you, and everyone is welcome there.

------------------------------------------------------------

  Date     :  20220125, Time     :  203708.569
  Time zero on CPU 1             :   0.128650000000000E-01  s.
  Internal wall clock time zero  :           412375028.569  s.

  Using        8 parallel tasks.
  Task        0 on host khas109 reporting.
  Task        1 on host khas109 reporting.
  Task        2 on host khas109 reporting.
  Task        3 on host khas109 reporting.
  Task        4 on host khas109 reporting.
  Task        5 on host khas109 reporting.
  Task        6 on host khas109 reporting.
  Task        7 on host khas109 reporting.

  Performing system and environment tests:
  | Environment variable OMP_NUM_THREADS correctly set to 1.
  | Stacksize not measured: no C compiler
  | Checking for scalapack...
  | Testing pdtran()...
  | All pdtran() tests passed.

  Obtaining array dimensions for all initial allocations:
  
  -----------------------------------------------------------------------
  Parsing control.in (first pass over file, find array dimensions only).
  The contents of control.in will be repeated verbatim below
  unless switched off by setting 'verbatim_writeout .false.' .
  in the first line of control.in .
  -----------------------------------------------------------------------
  
    xc               pbe
    spin             collinear
    default_initial_moment hund
    relativistic     atomic_zora scalar 1e-9
    occupation_type  gaussian 0.001
    charge        0
    vdw_correction_hirshfeld
    KS_method        scalapack_fast
    mixer            pulay
    charge_mix_param  0.4
    spin_mix_param    0.6
    sc_accuracy_rho  1E-4
    sc_accuracy_eev  1E-5
    sc_accuracy_etot 1E-5
    sc_iter_limit    100
    empty_states     5
  ################################
  # For relaxation:
    relax_geometry trm 1E-3
    sc_accuracy_forces 1E-4
  ################################
  ################################################################################
  #
  #  FHI-aims code project
  # Volker Blum, Fritz Haber Institute Berlin, 2009
  #
  #  Suggested "tight" defaults for Co atom (to be pasted into control.in file)
  #
  #  Revised June 14, 2011.
  #     p and d functions of tier 2 now enabled by default, as the atom may change
  #     its occupation. Similar to Ni.
  #
  ################################################################################
    species        Co
  #     global species definitions
      nucleus      27
      mass         58.933195
  #
      l_hartree    6
  #
      cut_pot      4.0  2.0  1.0
      basis_dep_cutoff    1e-4
  #
      radial_base        52 7.0
      radial_multiplier  2
      angular_grids       specified
        division   0.3189   50
        division   0.6267  110
        division   0.9473  194
        division   1.1520  302
        division   1.3966  434
  #      division   1.6293  590
  #      division   1.8317  770
  #      division   2.0231  974
  #      division   2.4367 1202
  #      outer_grid   974
        outer_grid  434
  ################################################################################
  #
  #  Definition of "minimal" basis
  #
  ################################################################################
  #     valence basis states
      valence      4  s   2.
      valence      3  p   6.
      valence      3  d   7.
  #     ion occupancy
      ion_occ      4  s   1.
      ion_occ      3  p   6.
      ion_occ      3  d   6.
  ################################################################################
  #
  #  Suggested additional basis functions. For production calculations,
  #  uncomment them one after another (the most important basis functions are
  #  listed first).
  #
  #  Constructed for dimers: 1.8, 2.0, 2.5, 3.5 Ang
  #
  ################################################################################
  #  "First tier" (improvements: -167.79 meV ...  -15.31 meV)
       hydro 3 p 5.8
       hydro 4 f 8.2
       hydro 3 d 5.4
       hydro 5 g 12
       ionic 4 s auto
  #  "Second tier" (improvements: -8.83 meV ... -0.89 meV)
       ionic 4 p auto
  #     hydro 6 h 16.4
       hydro 4 d 5.6
  #     hydro 4 f 17.2
  #     hydro 1 s 0.75
  #  "Third tier" (improvements: -1.03 meV ... -0.06 meV)
  #     hydro 4 d 7.8
  #     hydro 2 p 5.8
  #     hydro 4 f 8
  #     hydro 5 g 11.6
  #     hydro 4 s 4.3
  #     hydro 6 h 14.4
  #  "Fourth tier" (minor improvements)
  #     hydro 5 f 16
  #     hydro 5 d 8
  #     hydro 4 p 10
  #     hydro 5 s 7.4
  
  ################################################################################
  #
  #  FHI-aims code project
  # Volker Blum, Fritz Haber Institute Berlin, 2009
  #
  #  Suggested "tight" defaults for Zr atom (to be pasted into control.in file)
  #
  ################################################################################
    species          Zr
  #     global species definitions
      nucleus        40
      mass           91.224
  #
      l_hartree      6
  #
      cut_pot        4.0  2.0  1.0
      basis_dep_cutoff    1e-4
  #
      radial_base    58  7.0
      radial_multiplier  2
      angular_grids specified
        division   0.3653   50
        division   0.8035  110
        division   1.2273  194
        division   1.4586  302
        division   1.6764  434
  #      division   1.9671  590
  #      division   2.1961  770
  #      division   2.3240  974
  #      division   3.4772 1202
  #      outer_grid  974
        outer_grid  434
  ################################################################################
  #
  #  Definition of "minimal" basis
  #
  ################################################################################
  #     valence basis states
      valence      5  s   2.
      valence      4  p   6.
      valence      4  d   2.
  #     ion occupancy
      ion_occ      5  s   1.
      ion_occ      4  p   6.
      ion_occ      4  d   1.
  ################################################################################
  #
  #  Suggested additional basis functions. For production calculations,
  #  uncomment them one after another (the most important basis functions are
  #  listed first).
  #
  #  Constructed for dimers: 1.9, 2.25, 3.00, 4.00 Ang
  #
  ################################################################################
  #  "First tier" - improvements: -605.96 meV to -18.06 meV
       hydro 4 f 7.2
       ionic 4 d auto
       ionic 5 p auto
       hydro 5 g 10.4
       ionic 5 s auto
  #  "Second tier" - improvements: -32.47 meV to -1.41 meV
  #     hydro 4 f 10.4
  #     hydro 6 h 14.8
  #     hydro 4 d 6.2
  #     hydro 4 p 4.4
  #     hydro 4 f 20
  #     hydro 5 s 6
  #  "Third tier" - improvements: -1.99 meV and lower.
  #     hydro 4 f 5.8
  #     hydro 5 g 10.8
  #     hydro 2 p 1
  #     hydro 3 d 8
  #     hydro 6 h 14.4
  #     hydro 1 s 0.9
  #  Further functions (approx -0.40 meV and below possible)
  
  -----------------------------------------------------------------------
  Completed first pass over input file control.in .
  -----------------------------------------------------------------------
  
  
  -----------------------------------------------------------------------
  Parsing geometry.in (first pass over file, find array dimensions only).
  The contents of geometry.in will be repeated verbatim below
  unless switched off by setting 'verbatim_writeout .false.' .
  in the first line of geometry.in .
  -----------------------------------------------------------------------
  
  atom	-1	0	0	Co
  atom	1	0	0	Co
  atom	0	2	0	Zr
  atom	0	4	0	Co
  
  -----------------------------------------------------------------------
  Completed first pass over input file geometry.in .
  -----------------------------------------------------------------------
  

  Basic array size parameters:
  | Number of species                 :        2
  | Number of atoms                   :        4
  | Max. basis fn. angular momentum   :        4
  | Max. atomic/ionic basis occupied n:        5
  | Max. number of basis fn. types    :        3
  | Max. radial fns per species/type  :       10
  | Max. logarithmic grid size        :     1432
  | Max. radial integration grid size :      117
  | Max. angular integration grid size:      434
  | Max. angular grid division number :        8
  | Radial grid for Hartree potential :     1432
  | Number of spin channels           :        2

------------------------------------------------------------
          Reading file control.in.
------------------------------------------------------------
  XC: Using PBE gradient-corrected functionals.
  Spin treatment: Spin density functional theory - collinear spins.
  Initial spin moment per atom set according to Hund's rules.
  Scalar relativistic treatment of kinetic energy: on-site free-atom approximation to ZORA.
  Occupation type: Gaussian broadening, width =   0.100000E-02 eV.
  Charge =   0.000000E+00: Neutral system requested explicitly.
  Using non-empirical van der Waals correction (Hirshfeld partitioning):
  Kohn-Sham eigenvalues and eigenfunctions calculated by the ELPA eigensolver library.
  Using pulay charge density mixing.
  Charge density mixing - mixing parameter:     0.4000
  Spin density mixing - mixing parameter:     0.6000
  Convergence accuracy of self-consistent charge density: 0.1000E-03
  Convergence accuracy of sum of eigenvalues: 0.1000E-04
  Convergence accuracy of total energy: 0.1000E-04
  Maximum number of s.-c. iterations  :   100
  Number of empty states per atom:        5
  Geometry relaxation: Modified BFGS - TRM (trust radius method, i.e., trusted quadratic extrapolation).
  Convergence accuracy for geometry relaxation: Maximum force <   0.100000E-02 eV/A.
  Convergence accuracy of forces: 0.1000E-03
 
  Reading configuration options for species Co                  .
  | Found nuclear charge :  27.0000
  | Found atomic mass :    58.9331950000000      amu
  | Found l_max for Hartree potential  :   6
  | Found cutoff potl. onset [A], width [A], scale factor :    4.00000    2.00000    1.00000
  | Threshold for basis-dependent cutoff potential is   0.100000E-03
  | Found data for basic radial integration grid :    52 points, outermost radius =    7.000 A
  | Found multiplier for basic radial grid :   2
  | Found angular grid specification: user-specified.
  | Specified grid contains     6 separate shells.
  | Check grid settings after all constraints further below.
  | Found free-atom valence shell :  4 s   2.000
  | Found free-atom valence shell :  3 p   6.000
  | Found free-atom valence shell :  3 d   7.000
  | Found free-ion valence shell :  4 s   1.000
  | Found free-ion valence shell :  3 p   6.000
  | Found free-ion valence shell :  3 d   6.000
  | Found hydrogenic basis function :  3 p   5.800
  | Found hydrogenic basis function :  4 f   8.200
  | Found hydrogenic basis function :  3 d   5.400
  | Found hydrogenic basis function :  5 g  12.000
  | Found ionic basis function :  4 s , default cutoff radius.
  | Found ionic basis function :  4 p , default cutoff radius.
  | Found hydrogenic basis function :  4 d   5.600
  Species Co                  : Missing cutoff potential type.
  Defaulting to exp(1/x)/(1-x)^2 type cutoff potential.
  Species Co: No 'logarithmic' tag. Using default grid for free atom:
  | Default logarithmic grid data [bohr] : 0.1000E-03 0.1000E+03 0.1012E+01
  | Will include ionic basis functions of  2.0-fold positive Co                   ion.
  Species Co: On-site basis accuracy parameter (for Gram-Schmidt orthonormalisation) not specified.
  Using default value basis_acc =  0.1000000E-03.
  Species Co                  : Using default innermost maximum threshold i_radial=  2 for radial functions.
  Species Co                  : Default cutoff onset for free atom density etc. : 0.40000000E+01 AA.
  Species Co                  : Basic radial grid will be enhanced according to radial_multiplier =   2, to contain   105 grid points.
 
  Reading configuration options for species Zr                  .
  | Found nuclear charge :  40.0000
  | Found atomic mass :    91.2240000000000      amu
  | Found l_max for Hartree potential  :   6
  | Found cutoff potl. onset [A], width [A], scale factor :    4.00000    2.00000    1.00000
  | Threshold for basis-dependent cutoff potential is   0.100000E-03
  | Found data for basic radial integration grid :    58 points, outermost radius =    7.000 A
  | Found multiplier for basic radial grid :   2
  | Found angular grid specification: user-specified.
  | Specified grid contains     6 separate shells.
  | Check grid settings after all constraints further below.
  | Found free-atom valence shell :  5 s   2.000
  | Found free-atom valence shell :  4 p   6.000
  | Found free-atom valence shell :  4 d   2.000
  | Found free-ion valence shell :  5 s   1.000
  | Found free-ion valence shell :  4 p   6.000
  | Found free-ion valence shell :  4 d   1.000
  | Found hydrogenic basis function :  4 f   7.200
  | Found ionic basis function :  4 d , default cutoff radius.
  | Found ionic basis function :  5 p , default cutoff radius.
  | Found hydrogenic basis function :  5 g  10.400
  | Found ionic basis function :  5 s , default cutoff radius.
  Species Zr                  : Missing cutoff potential type.
  Defaulting to exp(1/x)/(1-x)^2 type cutoff potential.
  Species Zr: No 'logarithmic' tag. Using default grid for free atom:
  | Default logarithmic grid data [bohr] : 0.1000E-03 0.1000E+03 0.1012E+01
  | Will include ionic basis functions of  2.0-fold positive Zr                   ion.
  Species Zr: On-site basis accuracy parameter (for Gram-Schmidt orthonormalisation) not specified.
  Using default value basis_acc =  0.1000000E-03.
  Species Zr                  : Using default innermost maximum threshold i_radial=  2 for radial functions.
  Species Zr                  : Default cutoff onset for free atom density etc. : 0.40000000E+01 AA.
  Species Zr                  : Basic radial grid will be enhanced according to radial_multiplier =   2, to contain   117 grid points.
 
  Finished reading input file 'control.in'. Consistency checks are next.
 
  Target number of points in a grid batch is not set. Defaulting to  100
  Method for grid partitioning is not set. Defaulting to parallel hash+maxmin partitioning.
  Batch size limit is not set. Defaulting to    200
  By default, will store active basis functions for each batch.
  If in need of memory, prune_basis_once .false. can be used to disable this option.
  communication_type for Hartree potential was not specified.
  Defaulting to calc_hartree .
  Pulay mixer: Number of relevant iterations not set.
  Defaulting to    8 iterations.
  Pulay mixer: Number of initial linear mixing iterations not set.
  Defaulting to    0 iterations.
  Work space size for distributed Hartree potential not set.
  Defaulting to   0.200000E+03 MB.
  Algorithm-dependent basis array size parameters:
  | n_max_pulay                         :        8
  No maximum number of relaxation steps, defaulting to     1000
  Default initial Hessian is Lindh matrix (thres = 15.00) plus  0.200000E+01 eV/A^2 times unity.
  No maximum energy tolerance for TRM/BFGS moves, defaulting to   0.200000E-03
  No harmonic length scale. Defaulting to   0.250000E-01 A.
  No trust radius initializer. Defaulting to   0.200000E+00 A.
  Handling of forces: Unphysical translation and rotation will be removed from forces.
  No accuracy limit for integral partition fn. given. Defaulting to 0.1000E-14.
  No threshold value for u(r) in integrations given. Defaulting to 0.1000E-05.
  No accuracy for occupation numbers given. Defaulting to 0.1000E-07.
  No threshold value for occupation numbers given. Defaulting to 0.0000E+00.
  No accuracy for fermi level given. Defaulting to 0.1000E-19.
  Maximum # of iterations to find E_F not set. Defaulting to  200.
  Will not use alltoall communication since running on < 1024 CPUs.
  Threshold for basis singularities not set.
  Default threshold for basis singularities: 0.1000E-04
  partition_type (choice of integration weights) for integrals was not specified.
  | Using a version of the partition function of Stratmann and coworkers ('stratmann_smoother').
  | At each grid point, the set of atoms used to build the partition table is smoothly restricted to
  | only those atoms whose free-atom density would be non-zero at that grid point.
  Partitioning for Hartree potential was not defined. Using partition_type for integrals.
  | Adjusted default value of keyword multip_moments_threshold to:       0.10000000E-11
  | This value may affect high angular momentum components of the Hartree potential in periodic systems.
  No q(lm)/r^(l+1) cutoff set for long-range Hartree potential.
  | Using default value of  0.100000E-09 .
  | Verify using the multipole_threshold keyword.
  Defaulting to new monopole extrapolation.
  Density update method: automatic selection selected.
  Geometry relaxation: A file "geometry.in.next_step" is written out by default after each step.
  | This file contains the geometry of the current relaxation step as well as
  | the current Hessian matrix needed to restart the relaxation algorithm.
  | If you do not want part or all of this information, use the keywords
  | "write_restart_geometry" or "hessian_to_restart_geometry" to switch the output off.
------------------------------------------------------------


------------------------------------------------------------
          Reading geometry description geometry.in.
------------------------------------------------------------
  Input structure read successfully.
  The structure contains        4 atoms,  and a total of        121.000 electrons.

  Input geometry:
  | No unit cell requested.
  | Atomic structure:
  |       Atom                x [A]            y [A]            z [A]
  |    1: Species Co            -1.000000         0.000000         0.000000
  |    2: Species Co             1.000000         0.000000         0.000000
  |    3: Species Zr             0.000000         2.000000         0.000000
  |    4: Species Co             0.000000         4.000000         0.000000
  |

  | The smallest distance between any two atoms is         2.00000000 AA.
  |
  | The first atom of this pair is atom number                      1 .
  | The second atom of this pair is atom number                     2 .

  Initial moments and charges:
  |  Atom   Moment         Charge        Species
  |     1  (Hund's rule)   0.000000E+00   Co
  |     2  (Hund's rule)   0.000000E+00   Co
  |     3  (Hund's rule)   0.000000E+00   Zr
  |     4  (Hund's rule)   0.000000E+00   Co

  Structure-dependent array size parameters: 
  | Number of distinct atom types in initial rho :        2
  | Maximum number of distinct radial functions  :       29
  | Maximum number of basis functions            :      193
  | Number of Kohn-Sham states (occupied + empty):       71
------------------------------------------------------------

------------------------------------------------------------
          Preparing all fixed parts of the calculation.
------------------------------------------------------------
  Determining machine precision:
    2.225073858507201E-308
  Setting up grids for atomic and cluster calculations.

  Creating wave function, potential, and density for free atoms.

  Species: Co

  List of occupied orbitals and eigenvalues:
    n    l              occ      energy [Ha]    energy [eV]
    1    0           2.0000      -281.566092     -7661.8032
    2    0           2.0000       -33.078778      -900.1193
    3    0           2.0000        -3.761161      -102.3464
    4    0           2.0000        -0.199094        -5.4176
    2    1           6.0000       -28.325360      -770.7723
    3    1           6.0000        -2.409500       -65.5658
    3    2           7.0000        -0.299474        -8.1491


  Species: Zr

  List of occupied orbitals and eigenvalues:
    n    l              occ      energy [Ha]    energy [eV]
    1    0           2.0000      -668.722933    -18196.8768
    2    0           2.0000       -91.076987     -2478.3309
    3    0           2.0000       -14.873383      -404.7254
    4    0           2.0000        -1.994212       -54.2653
    5    0           2.0000        -0.156460        -4.2575
    2    1           6.0000       -81.194469     -2209.4139
    3    1           6.0000       -11.667913      -317.5001
    4    1           6.0000        -1.184217       -32.2242
    3    2          10.0000        -6.414313      -174.5423
    4    2           2.0000        -0.125045        -3.4027

  Spin-polarized or charged system:
  Charge density initialized according to selected moments and charges.

  Creating spin-polarized density from free atoms.

  Species: Co
  Charge:   0.000000
  applying Hund's rules ...

  List of occupied orbitals and eigenvalues:
    n    l      energy [Ha]    energy [eV]    occupation
  Spin-up
    1    0      -281.554206     -7661.4798     1.00000000
    2    0       -33.093603      -900.5227     1.00000000
    3    0        -3.810718      -103.6949     1.00000000
    4    0        -0.208358        -5.6697     1.00000000
    2    1       -28.333473      -770.9930     3.00000000
    3    1        -2.458199       -66.8910     3.00000000
    3    2        -0.343568        -9.3490     5.00000000
  Spin-down
    1    0      -281.554311     -7661.4826     1.00000000
    2    0       -33.037259      -898.9895     1.00000000
    3    0        -3.689015      -100.3832     1.00000000
    4    0        -0.188150        -5.1198     1.00000000
    2    1       -28.290937      -769.8356     3.00000000
    3    1        -2.339100       -63.6502     3.00000000
    3    2        -0.238133        -6.4799     2.00000000


  Species: Zr
  Charge:   0.000000
  applying Hund's rules ...

  List of occupied orbitals and eigenvalues:
    n    l      energy [Ha]    energy [eV]    occupation
  Spin-up
    1    0      -668.716650    -18196.7059     1.00000000
    2    0       -91.073405     -2478.2334     1.00000000
    3    0       -14.868787      -404.6003     1.00000000
    4    0        -2.005541       -54.5736     1.00000000
    5    0        -0.166084        -4.5194     1.00000000
    2    1       -81.190183     -2209.2973     3.00000000
    3    1       -11.663467      -317.3791     3.00000000
    4    1        -1.198548       -32.6141     3.00000000
    3    2        -6.410722      -174.4446     5.00000000
    4    2        -0.141834        -3.8595     2.00000000
  Spin-down
    1    0      -668.716897    -18196.7126     1.00000000
    2    0       -91.068181     -2478.0913     1.00000000
    3    0       -14.865979      -404.5239     1.00000000
    4    0        -1.970809       -53.6285     1.00000000
    5    0        -0.141744        -3.8570     1.00000000
    2    1       -81.186383     -2209.1939     3.00000000
    3    1       -11.660361      -317.2946     3.00000000
    4    1        -1.158045       -31.5120     3.00000000
    3    2        -6.405859      -174.3123     5.00000000
    4    2        -0.099325        -2.7028     0.00000000

  Creating fixed part of basis set: Ionic, confined, hydrogenic.
 
  Co                   ion:

  List of free ionic orbitals and eigenvalues:
    n    l      energy [Ha]    energy [eV]
    1    0      -282.564401     -7688.9686
    2    0       -34.086672      -927.5455
    3    0        -4.733406      -128.8025
    4    0        -0.850278       -23.1373
    2    1       -29.331608      -798.1537
    3    1        -3.374486       -91.8244
    3    2        -1.228934       -33.4410


  List of ionic basis orbitals and eigenvalues:
    n    l      energy [Ha]    energy [eV]    outer radius [A]
    4    0        -0.850268       -23.1370       5.017573
    4    1        -0.602640       -16.3987       5.399446

 
  Co                   hydrogenic:
 
  List of hydrogenic basis orbitals: 
    n    l      effective z      eigenvalue [eV]  inner max. [A]     outer max. [A]     outer radius [A]   
    3    1         5.800000       -50.8549           0.273460           1.088525           4.494802
    4    3         8.200000       -57.1778           1.036577           1.036577           4.550088
    3    2         5.400000       -44.0822           0.884263           0.884263           4.494802
    5    4        12.000000       -78.3687           1.101914           1.101914           4.440187
    4    2         5.600000       -26.6539           0.643489           2.005859           5.465859
 
 
  Zr                   ion:

  List of free ionic orbitals and eigenvalues:
    n    l      energy [Ha]    energy [eV]
    1    0      -669.421026    -18215.8729
    2    0       -91.769634     -2497.1788
    3    0       -15.560469      -423.4219
    4    0        -2.663352       -72.4735
    5    0        -0.640863       -17.4388
    2    1       -81.886574     -2228.2470
    3    1       -12.354892      -336.1937
    4    1        -1.844122       -50.1811
    3    2        -7.101714      -193.2475
    4    2        -0.726930       -19.7808


  List of ionic basis orbitals and eigenvalues:
    n    l      energy [Ha]    energy [eV]    outer radius [A]
    4    2        -0.726920       -19.7805       5.008334
    5    1        -0.469561       -12.7774       5.455794
    5    0        -0.640774       -17.4363       5.389503

 
  Zr                   hydrogenic:
 
  List of hydrogenic basis orbitals: 
    n    l      effective z      eigenvalue [eV]  inner max. [A]     outer max. [A]     outer radius [A]   
    4    3         7.200000       -44.0822           1.169212           1.169212           5.008334
    5    4        10.400000       -58.8635           1.273673           1.273673           4.887365
 

  Adding cutoff potential to free-atom effective potential.
  Creating atomic-like basis functions for current effective potential.

  Species Co                  :

  List of atomic basis orbitals and eigenvalues:
    n    l      energy [Ha]    energy [eV]    outer radius [A]
    1    0      -281.566092     -7661.8032       0.394613
    2    0       -33.078778      -900.1193       1.157136
    3    0        -3.761161      -102.3464       3.311155
    4    0        -0.199094        -5.4176       5.399446
    2    1       -28.325360      -770.7723       1.215127
    3    1        -2.409500       -65.5658       3.977573
    3    2        -0.299474        -8.1491       5.269030


  Species Zr                  :

  List of atomic basis orbitals and eigenvalues:
    n    l      energy [Ha]    energy [eV]    outer radius [A]
    1    0      -668.722933    -18196.8768       0.259930
    2    0       -91.076987     -2478.3309       0.725827
    3    0       -14.873383      -404.7254       1.771771
    4    0        -1.994212       -54.2653       4.541709
    5    0        -0.156460        -4.2575       5.455794
    2    1       -81.194469     -2209.4139       0.743792
    3    1       -11.667913      -317.5001       1.930067
    4    1        -1.184217       -32.2242       5.008334
    3    2        -6.414313      -174.5423       2.434714
    4    2        -0.125045        -3.4027       5.389503

  Assembling full basis from fixed parts.
  | Species Co :   atomic orbital   1 s accepted.
  | Species Co :   atomic orbital   2 s accepted.
  | Species Co :   atomic orbital   3 s accepted.
  | Species Co :    ionic orbital   4 s accepted.
  | Species Co :   atomic orbital   4 s accepted.
  | Species Co :   atomic orbital   2 p accepted.
  | Species Co :   atomic orbital   3 p accepted.
  | Species Co :    hydro orbital   3 p accepted.
  | Species Co :    ionic orbital   4 p accepted.
  | Species Co :    hydro orbital   3 d accepted.
  | Species Co :   atomic orbital   3 d accepted.
  | Species Co :    hydro orbital   4 d accepted.
  | Species Co :    hydro orbital   4 f accepted.
  | Species Co :    hydro orbital   5 g accepted.
  | Species Zr :   atomic orbital   1 s accepted.
  | Species Zr :   atomic orbital   2 s accepted.
  | Species Zr :   atomic orbital   3 s accepted.
  | Species Zr :   atomic orbital   4 s accepted.
  | Species Zr :    ionic orbital   5 s accepted.
  | Species Zr :   atomic orbital   5 s accepted.
  | Species Zr :   atomic orbital   2 p accepted.
  | Species Zr :   atomic orbital   3 p accepted.
  | Species Zr :   atomic orbital   4 p accepted.
  | Species Zr :    ionic orbital   5 p accepted.
  | Species Zr :   atomic orbital   3 d accepted.
  | Species Zr :    ionic orbital   4 d accepted.
  | Species Zr :   atomic orbital   4 d accepted.
  | Species Zr :    hydro orbital   4 f accepted.
  | Species Zr :    hydro orbital   5 g accepted.
 
  Basis size parameters after reduction:
  | Total number of radial functions:       29
  | Total number of basis functions :      193
 
  Testing on-site integration grid accuracy.
  |  Species  Function  <phi|h_atom|phi> (log., in eV)  <phi|h_atom|phi> (rad., in eV)
           1        1              -7661.8031969867              -7661.8029260849
           1        2               -900.1193394436               -900.1193358362
           1        3               -102.3464062200               -102.3464054597
           1        4                 -4.5136676415                 -4.5136684488
           1        5                  5.2956911928                  5.2959272761
           1        6               -770.7722641523               -770.7722638539
           1        7                -65.5658195253                -65.5658190573
           1        8                  4.1689597085                  4.1689599828
           1        9                 11.7969993559                 11.7970095039
           1       10                  6.0390118236                  6.0390118634
           1       11                 12.9242487525                 12.9242490163
           1       12                 18.9576570498                 18.9576800677
           1       13                 32.4985635122                 32.4985635847
           1       14                 58.0457734223                 58.0457733072
           2       15             -18196.8768435665             -18196.8755705220
           2       16              -2478.3309144498              -2478.3308916069
           2       17               -404.7253557491               -404.7253534742
           2       18                -54.2652640714                -54.2652635286
           2       19                 -3.7119764275                 -3.7119846577
           2       20                  4.5875772639                  4.5868905659
           2       21              -2209.4139097225              -2209.4139071812
           2       22               -317.5000788444               -317.5000777556
           2       23                -32.2241784576                -32.2241781542
           2       24                 -0.3319152745                 -0.3319660629
           2       25               -174.5423275335               -174.5423272575
           2       26                 -3.0504029429                 -3.0504025329
           2       27                  4.9970437712                  4.9966978803
           2       28                 16.8632595236                 16.8632598612
           2       29                 37.0867992037                 37.0867988501

  Preparing densities etc. for the partition functions (integrals / Hartree potential).

  Preparations completed.
  max(cpu_time)          :      1.025 s.
  Wall clock time (cpu1) :      1.031 s.
------------------------------------------------------------

------------------------------------------------------------
          Begin self-consistency loop: Initialization.

          Date     :  20220125, Time     :  203709.677
------------------------------------------------------------

  Initializing index lists of integration centers etc. from given atomic structure:
  | Number of centers in hartree potential         :         4
  | Number of centers in hartree multipole         :         4
  | Number of centers in electron density summation:         4
  | Number of centers in basis integrals           :         4
  | Number of centers in integrals                 :         4
  Initializing relaxation algorithms.
  Using modified Scalapack Eigenvalue solver (ELPA)
  * Using 8 tasks for Scalapack Eigenvalue solver.
  Detailed listing of tasks and assigned k-points:
  (for non-periodic systems, the "k-point" denotes an internal label only)
   Task     0 k-point     1 on khas109
   Task     1 k-point     1 on khas109
   Task     2 k-point     1 on khas109
   Task     3 k-point     1 on khas109
   Task     4 k-point     1 on khas109
   Task     5 k-point     1 on khas109
   Task     6 k-point     1 on khas109
   Task     7 k-point     1 on khas109
  Tasks:     8 split into      4 X      2 BLACS grid
  Calculating blocksize based on n_basis =          193 max_nprow =            4 max_npcol =            2
  Scalapack blocksize set to:           16
  Required Scalapack workspace - INTEGER:            1 REAL:             1
  Partitioning the integration grid into batches with parallel hashing+maxmin method.
  | Number of batches:     1203
  | Maximal batch size:     200
  | Minimal batch size:      49
  | Average batch size:      76.229
  | Standard deviation of batch sizes:      24.031

  Integration load balanced across     8 MPI tasks.
  Work distribution over tasks is as follows:
  Task     0 has      11434 integration points.
  Task     1 has      11531 integration points.
  Task     2 has      11425 integration points.
  Task     3 has      11431 integration points.
  Task     4 has      11539 integration points.
  Task     5 has      11489 integration points.
  Task     6 has      11431 integration points.
  Task     7 has      11424 integration points.
  Initializing partition tables, free-atom densities, potentials, etc. across the integration grid (initialize_grid_storage).
  | initialize_grid_storage: Actual outermost partition radius vs. multipole_radius_free
  | (-- VB: in principle, multipole_radius_free should be larger, hence this output)
  | Species        1: outer_partition_radius =              6.000000000000000 AA, multipole_radius_free =              6.027432917222699 AA.
  | Species        2: outer_partition_radius =              6.000000000000000 AA, multipole_radius_free =              6.016333975203386 AA.
  | Original list of interatomic distances with           4 x          4 entries is created.
  | Net number of integration points:    91704
  | of which are non-zero points    :    85258
  Obtaining max. number of non-zero basis functions in each batch (get_n_compute_maxes).
  | Maximal number of non-zero basis functions:      184 in task     0
  | Maximal number of non-zero basis functions:      183 in task     1
  | Maximal number of non-zero basis functions:      185 in task     2
  | Maximal number of non-zero basis functions:      184 in task     3
  | Maximal number of non-zero basis functions:      181 in task     4
  | Maximal number of non-zero basis functions:      182 in task     5
  | Maximal number of non-zero basis functions:      181 in task     6
  | Maximal number of non-zero basis functions:      182 in task     7
  Selecting the method for density update.
  Loop over occupied states selected for charge density update.
  Integrating Hamiltonian matrix: batch-based integration.
  Time summed over all CPUs for integration: real work        1.008 s, elapsed        1.034 s
  Integrating overlap matrix.
  Time summed over all CPUs for integration: real work        0.319 s, elapsed        0.327 s
  Deallocating overlap matrix.

  Updating Kohn-Sham eigenvalues, eigenvectors, occupation numbers, and Fermi level.
  Solving generalized eigenproblem
  Solving real symmetric generalised eigenvalue problem by standard ScaLAPACK.
  Transforming overlap matrix with ScaLAPACK and checking for singularities.
  : Overlap matrix is nonsingular, using Cholesky decomposition
  | Lowest eigenvalue:  0.139714E-02
  Factoring overlap matrix with Cholesky decomposition
  Using Cholesky factor for transformation
  Using 1-stage real ELPA solver
  Solving real symmetric generalised eigenvalue problem by standard ScaLAPACK.
  Using Cholesky factor for transformation
  Using 1-stage real ELPA solver
  Determining occupation numbers for Kohn-Sham eigenstates.
  | Chemical potential (Fermi level) in eV                 : -.73514986E+01
  | Error in electron count due to remaining E_F inaccuracy: 0.00000000E+00
  | Maximum occupation number of highest empty state:  0.00E+00

  Writing Kohn-Sham eigenvalues.

  Spin-up eigenvalues:

  State    Occupation    Eigenvalue [Ha]    Eigenvalue [eV]
      1       1.00000        -668.758971       -18197.85749
      2       1.00000        -281.618490        -7663.22902
      3       1.00000        -281.612406        -7663.06345
      4       1.00000        -281.612406        -7663.06345
      5       1.00000         -91.116420        -2479.40394
      6       1.00000         -81.233431        -2210.47412
      7       1.00000         -81.233014        -2210.46276
      8       1.00000         -81.232962        -2210.46137
      9       1.00000         -33.160010         -902.32978
     10       1.00000         -33.154013         -902.16660
     11       1.00000         -33.154013         -902.16659
     12       1.00000         -28.400516         -772.81736
     13       1.00000         -28.399079         -772.77827
     14       1.00000         -28.399079         -772.77827
     15       1.00000         -28.394123         -772.64340
     16       1.00000         -28.394123         -772.64339
     17       1.00000         -28.393467         -772.62554
     18       1.00000         -28.393467         -772.62554
     19       1.00000         -28.393063         -772.61455
     20       1.00000         -28.393063         -772.61455
     21       1.00000         -14.914162         -405.83500
     22       1.00000         -11.712113         -318.70281
     23       1.00000         -11.707656         -318.58152
     24       1.00000         -11.707106         -318.56657
     25       1.00000          -6.458659         -175.74906
     26       1.00000          -6.457548         -175.71882
     27       1.00000          -6.457082         -175.70614
     28       1.00000          -6.454007         -175.62246
     29       1.00000          -6.454004         -175.62238
     30       1.00000          -3.881076         -105.60946
     31       1.00000          -3.878068         -105.52760
     32       1.00000          -3.873352         -105.39928
     33       1.00000          -2.543500          -69.21216
     34       1.00000          -2.542994          -69.19838
     35       1.00000          -2.526251          -68.74278
     36       1.00000          -2.526121          -68.73924
     37       1.00000          -2.521973          -68.62639
     38       1.00000          -2.521972          -68.62634
     39       1.00000          -2.518226          -68.52442
     40       1.00000          -2.515273          -68.44406
     41       1.00000          -2.514580          -68.42520
     42       1.00000          -2.071797          -56.37645
     43       1.00000          -1.313936          -35.75401
     44       1.00000          -1.259797          -34.28082
     45       1.00000          -1.252486          -34.08189
     46       1.00000          -0.509398          -13.86144
     47       1.00000          -0.471639          -12.83396
     48       1.00000          -0.464443          -12.63814
     49       1.00000          -0.452526          -12.31387
     50       1.00000          -0.438624          -11.93556
     51       1.00000          -0.433358          -11.79227
     52       1.00000          -0.417781          -11.36840
     53       1.00000          -0.414540          -11.28019
     54       1.00000          -0.412347          -11.22054
     55       1.00000          -0.407523          -11.08925
     56       1.00000          -0.404904          -11.01801
     57       1.00000          -0.404160          -10.99774
     58       1.00000          -0.387827          -10.55331
     59       1.00000          -0.377783          -10.28001
     60       1.00000          -0.377205          -10.26428
     61       1.00000          -0.350411           -9.53516
     62       0.00000          -0.253815           -6.90664
     63       0.00000          -0.241333           -6.56700
     64       0.00000          -0.225352           -6.13214
     65       0.00000          -0.209647           -5.70479
     66       0.00000          -0.192969           -5.25096
     67       0.00000          -0.188707           -5.13499
     68       0.00000          -0.159949           -4.35244
     69       0.00000          -0.131738           -3.58477
     70       0.00000          -0.120653           -3.28314
     71       0.00000          -0.059131           -1.60904

  Spin-down eigenvalues:

  State    Occupation    Eigenvalue [Ha]    Eigenvalue [eV]
      1       1.00000        -668.759213       -18197.86408
      2       1.00000        -281.618587        -7663.23164
      3       1.00000        -281.612506        -7663.06619
      4       1.00000        -281.612506        -7663.06619
      5       1.00000         -91.111207        -2479.26210
      6       1.00000         -81.229644        -2210.37106
      7       1.00000         -81.229226        -2210.35971
      8       1.00000         -81.229175        -2210.35832
      9       1.00000         -33.103645         -900.79601
     10       1.00000         -33.097690         -900.63396
     11       1.00000         -33.097689         -900.63395
     12       1.00000         -28.357970         -771.65961
     13       1.00000         -28.356539         -771.62068
     14       1.00000         -28.356539         -771.62068
     15       1.00000         -28.351612         -771.48662
     16       1.00000         -28.351612         -771.48662
     17       1.00000         -28.350959         -771.46884
     18       1.00000         -28.350958         -771.46882
     19       1.00000         -28.350556         -771.45787
     20       1.00000         -28.350556         -771.45787
     21       1.00000         -14.911376         -405.75918
     22       1.00000         -11.709026         -318.61881
     23       1.00000         -11.704575         -318.49768
     24       1.00000         -11.704026         -318.48274
     25       1.00000          -6.453822         -175.61742
     26       1.00000          -6.452713         -175.58726
     27       1.00000          -6.452248         -175.57459
     28       1.00000          -6.449176         -175.49102
     29       1.00000          -6.449173         -175.49093
     30       1.00000          -3.759151         -102.29171
     31       1.00000          -3.756659         -102.22388
     32       1.00000          -3.751714         -102.08932
     33       1.00000          -2.424976          -65.98696
     34       1.00000          -2.424253          -65.96729
     35       1.00000          -2.407537          -65.51241
     36       1.00000          -2.406988          -65.49749
     37       1.00000          -2.402657          -65.37963
     38       1.00000          -2.402655          -65.37957
     39       1.00000          -2.399415          -65.29140
     40       1.00000          -2.396232          -65.20479
     41       1.00000          -2.395197          -65.17662
     42       1.00000          -2.037505          -55.44334
     43       1.00000          -1.272856          -34.63618
     44       1.00000          -1.220183          -33.20286
     45       1.00000          -1.212960          -33.00633
     46       1.00000          -0.422924          -11.50834
     47       1.00000          -0.374037          -10.17807
     48       1.00000          -0.371119          -10.09866
     49       1.00000          -0.361186           -9.82838
     50       1.00000          -0.338139           -9.20123
     51       1.00000          -0.332943           -9.05984
     52       1.00000          -0.314578           -8.56010
     53       1.00000          -0.311698           -8.48174
     54       1.00000          -0.306078           -8.32881
     55       1.00000          -0.304141           -8.27609
     56       1.00000          -0.300682           -8.18198
     57       1.00000          -0.299355           -8.14585
     58       1.00000          -0.297763           -8.10253
     59       1.00000          -0.279157           -7.59625
     60       1.00000          -0.272281           -7.40915
     61       0.00000          -0.268234           -7.29901
     62       0.00000          -0.222211           -6.04667
     63       0.00000          -0.184823           -5.02930
     64       0.00000          -0.170968           -4.65228
     65       0.00000          -0.165356           -4.49956
     66       0.00000          -0.146749           -3.99324
     67       0.00000          -0.142749           -3.88439
     68       0.00000          -0.132317           -3.60052
     69       0.00000          -0.110047           -2.99454
     70       0.00000          -0.095446           -2.59723
     71       0.00000          -0.038334           -1.04312

  Current spin moment of the entire structure :
  | N = N_up - N_down :    1.00
  | S                 :    0.50
  | J                 :    2.00

  Highest occupied state (VBM) at     -7.40915316 eV
  | Occupation number:      1.00000000
  | Spin channel:        2

  Lowest unoccupied state (CBM) at    -7.29901239 eV
  | Occupation number:      0.00000000
  | Spin channel:        2

  Overall HOMO-LUMO gap:      0.11014077 eV.
  Calculating total energy contributions from superposition of free atom densities.

  Total energy components:
  | Sum of eigenvalues            :       -4661.47586517 Ha     -126845.21210466 eV
  | XC energy correction          :        -293.65633441 Ha       -7990.79542648 eV
  | XC potential correction       :         381.77096728 Ha       10388.51658171 eV
  | Free-atom electrostatic energy:       -3254.20177473 Ha      -88551.33573264 eV
  | Hartree energy correction     :           0.00000000 Ha           0.00000000 eV
  | van der Waals energy corr.    :           0.00000000 Ha           0.00000000 eV
  | Entropy correction            :           0.00000000 Ha           0.00000000 eV
  | ---------------------------
  | Total energy                  :       -7827.56300702 Ha     -212998.82668208 eV
  | Total energy, T -> 0          :       -7827.56300702 Ha     -212998.82668208 eV  <-- do not rely on this value for anything but (periodic) metals
  | Electronic free energy        :       -7827.56300702 Ha     -212998.82668208 eV

  Derived energy quantities:
  | Kinetic energy                :        7985.06436627 Ha      217284.65672786 eV
  | Electrostatic energy          :      -15518.97103888 Ha     -422292.68798346 eV
  | Energy correction for multipole
  | error in Hartree potential    :           0.00000000 Ha           0.00000000 eV
  | Sum of eigenvalues per atom                           :      -31711.30302617 eV
  | Total energy (T->0) per atom                          :      -53249.70667052 eV  <-- do not rely on this value for anything but (periodic) metals
  | Electronic free energy per atom                       :      -53249.70667052 eV
  Initialize hartree_potential_storage
  Max. number of atoms included in rho_multipole:            4

  End scf initialization - timings             :  max(cpu_time)    wall_clock(cpu1)
  | Time for scf. initialization               :        0.277 s           0.277 s
  | Boundary condition initialization          :        0.000 s           0.000 s
  | Relaxation initialization                  :        0.000 s           0.000 s
  | Integration                                :        0.172 s           0.172 s
  | Solution of K.-S. eqns.                    :        0.017 s           0.017 s
  | Grid partitioning                          :        0.030 s           0.030 s
  | Preloading free-atom quantities on grid    :        0.020 s           0.020 s
  | Free-atom superposition energy             :        0.012 s           0.012 s
  | Total energy evaluation                    :        0.000 s           0.000 s
------------------------------------------------------------

------------------------------------------------------------
          Begin self-consistency iteration #    1

  Date     :  20220125, Time     :  203709.954
------------------------------------------------------------
  Evaluating new KS density.
  Integration grid: deviation in total charge (<rho> - N_e) =  -9.414057E-08
  | <rho_up-rho_dn> = N_up-N_dn =     -9.0000; <|rho_up-rho_dn|> =      9.3395
  Pulay mixing of updated and previous charge densities.

  Evaluating partitioned Hartree potential by multipole expansion.
  | Analytical far-field extrapolation by fixed multipoles:
  | Hartree multipole sum: apparent total charge =  -0.174097E-05
  Summing up the Hartree potential.
  Time summed over all CPUs for potential: real work        0.254 s, elapsed        0.257 s
  | RMS charge density error from multipole expansion :   0.178247E-02

  Integrating Hamiltonian matrix: batch-based integration.
  Time summed over all CPUs for integration: real work        0.983 s, elapsed        1.005 s

  Updating Kohn-Sham eigenvalues, eigenvectors, occupation numbers, and Fermi level.
  Solving generalized eigenproblem
  Solving real symmetric generalised eigenvalue problem by standard ScaLAPACK.
  Using Cholesky factor for transformation
  Using 1-stage real ELPA solver
  Solving real symmetric generalised eigenvalue problem by standard ScaLAPACK.
  Using Cholesky factor for transformation
  Using 1-stage real ELPA solver
  Determining occupation numbers for Kohn-Sham eigenstates.
  | Chemical potential (Fermi level) in eV                 : 0.24495921E+00
  | Error in electron count due to remaining E_F inaccuracy: 0.00000000E+00
  | Maximum occupation number of highest empty state:  0.00E+00

  Writing Kohn-Sham eigenvalues.

  Spin-up eigenvalues:

  State    Occupation    Eigenvalue [Ha]    Eigenvalue [eV]
      1       1.00000        -668.808333       -18199.20071
      2       1.00000        -280.908358        -7643.90533
      3       1.00000        -280.892222        -7643.46625
      4       1.00000        -280.892222        -7643.46625
      5       1.00000         -91.159573        -2480.57818
      6       1.00000         -81.277832        -2211.68235
      7       1.00000         -81.277738        -2211.67979
      8       1.00000         -81.277066        -2211.66151
      9       1.00000         -32.453920         -883.11609
     10       1.00000         -32.440153         -882.74148
     11       1.00000         -32.440152         -882.74146
     12       1.00000         -27.696432         -753.65827
     13       1.00000         -27.689277         -753.46357
     14       1.00000         -27.688926         -753.45400
     15       1.00000         -27.680520         -753.22526
     16       1.00000         -27.680519         -753.22525
     17       1.00000         -27.678231         -753.16299
     18       1.00000         -27.678231         -753.16299
     19       1.00000         -27.674700         -753.06691
     20       1.00000         -27.674700         -753.06691
     21       1.00000         -14.945690         -406.69291
     22       1.00000         -11.741022         -319.48946
     23       1.00000         -11.740892         -319.48592
     24       1.00000         -11.738743         -319.42744
     25       1.00000          -6.488467         -176.56018
     26       1.00000          -6.488441         -176.55947
     27       1.00000          -6.486871         -176.51674
     28       1.00000          -6.486659         -176.51097
     29       1.00000          -6.486414         -176.50430
     30       1.00000          -3.370704          -91.72153
     31       1.00000          -3.327444          -90.54435
     32       1.00000          -3.322449          -90.40844
     33       1.00000          -2.085398          -56.74657
     34       1.00000          -2.038000          -55.45681
     35       1.00000          -2.028449          -55.19691
     36       1.00000          -2.027795          -55.17912
     37       1.00000          -2.009488          -54.68094
     38       1.00000          -1.988385          -54.10670
     39       1.00000          -1.986956          -54.06781
     40       1.00000          -1.985922          -54.03969
     41       1.00000          -1.984774          -54.00845
     42       1.00000          -1.978183          -53.82909
     43       1.00000          -1.253696          -34.11481
     44       1.00000          -1.253168          -34.10042
     45       1.00000          -1.252535          -34.08321
     46       1.00000          -0.239926           -6.52872
     47       1.00000          -0.238671           -6.49457
     48       1.00000          -0.235938           -6.42020
     49       1.00000          -0.220397           -5.99729
     50       1.00000          -0.194960           -5.30513
     51       1.00000          -0.194481           -5.29210
     52       1.00000          -0.143091           -3.89370
     53       1.00000          -0.109861           -2.98947
     54       1.00000          -0.095447           -2.59725
     55       1.00000          -0.055021           -1.49719
     56       1.00000          -0.030263           -0.82349
     57       1.00000          -0.024717           -0.67257
     58       1.00000          -0.018563           -0.50513
     59       1.00000          -0.018536           -0.50438
     60       1.00000          -0.018279           -0.49738
     61       1.00000          -0.009567           -0.26033
     62       1.00000          -0.006223           -0.16933
     63       1.00000          -0.003857           -0.10495
     64       0.00000           0.012191            0.33173
     65       0.00000           0.024046            0.65433
     66       0.00000           0.031268            0.85085
     67       0.00000           0.037016            1.00726
     68       0.00000           0.043582            1.18592
     69       0.00000           0.055802            1.51844
     70       0.00000           0.060914            1.65757
     71       0.00000           0.070462            1.91736

  Spin-down eigenvalues:

  State    Occupation    Eigenvalue [Ha]    Eigenvalue [eV]
      1       1.00000        -668.808541       -18199.20636
      2       1.00000        -280.908205        -7643.90117
      3       1.00000        -280.892074        -7643.46222
      4       1.00000        -280.892074        -7643.46222
      5       1.00000         -91.158056        -2480.53692
      6       1.00000         -81.276733        -2211.65244
      7       1.00000         -81.276710        -2211.65179
      8       1.00000         -81.276077        -2211.63458
      9       1.00000         -32.426577         -882.37206
     10       1.00000         -32.407402         -881.85029
     11       1.00000         -32.407402         -881.85028
     12       1.00000         -27.675275         -753.08256
     13       1.00000         -27.668674         -752.90292
     14       1.00000         -27.668443         -752.89664
     15       1.00000         -27.654400         -752.51450
     16       1.00000         -27.654400         -752.51450
     17       1.00000         -27.652270         -752.45656
     18       1.00000         -27.652270         -752.45656
     19       1.00000         -27.652250         -752.45599
     20       1.00000         -27.652250         -752.45599
     21       1.00000         -14.945010         -406.67442
     22       1.00000         -11.740202         -319.46714
     23       1.00000         -11.740107         -319.46457
     24       1.00000         -11.738078         -319.40936
     25       1.00000          -6.487048         -176.52155
     26       1.00000          -6.487045         -176.52148
     27       1.00000          -6.485677         -176.48425
     28       1.00000          -6.485556         -176.48097
     29       1.00000          -6.485081         -176.46804
     30       1.00000          -3.315088          -90.20813
     31       1.00000          -3.260350          -88.71864
     32       1.00000          -3.255187          -88.57814
     33       1.00000          -2.063202          -56.14258
     34       1.00000          -1.993981          -54.25897
     35       1.00000          -1.975091          -53.74495
     36       1.00000          -1.974812          -53.73736
     37       1.00000          -1.942783          -52.86581
     38       1.00000          -1.928011          -52.46384
     39       1.00000          -1.927828          -52.45888
     40       1.00000          -1.920362          -52.25570
     41       1.00000          -1.916534          -52.15153
     42       1.00000          -1.909768          -51.96744
     43       1.00000          -1.241193          -33.77459
     44       1.00000          -1.241109          -33.77230
     45       1.00000          -1.240035          -33.74307
     46       1.00000          -0.225200           -6.12800
     47       1.00000          -0.224458           -6.10782
     48       1.00000          -0.220991           -6.01348
     49       1.00000          -0.206800           -5.62731
     50       1.00000          -0.180487           -4.91129
     51       1.00000          -0.179466           -4.88352
     52       1.00000          -0.136849           -3.72384
     53       1.00000          -0.103590           -2.81883
     54       1.00000          -0.085638           -2.33034
     55       1.00000          -0.043953           -1.19602
     56       1.00000          -0.003805           -0.10355
     57       1.00000           0.002326            0.06330
     58       1.00000           0.002554            0.06950
     59       0.00000           0.011742            0.31951
     60       0.00000           0.012769            0.34746
     61       0.00000           0.018580            0.50558
     62       0.00000           0.024726            0.67284
     63       0.00000           0.031137            0.84727
     64       0.00000           0.039454            1.07360
     65       0.00000           0.046087            1.25409
     66       0.00000           0.059261            1.61257
     67       0.00000           0.063016            1.71475
     68       0.00000           0.073424            1.99796
     69       0.00000           0.084870            2.30943
     70       0.00000           0.095018            2.58557
     71       0.00000           0.098119            2.66994

  Current spin moment of the entire structure :
  | N = N_up - N_down :    5.00
  | S                 :    2.50
  | J                 :    6.00

  Highest occupied state (VBM) at      0.06950142 eV
  | Occupation number:      1.00000000
  | Spin channel:        2
 * WARNING: The VBM is higher than the internal energy zero!

  Lowest unoccupied state (CBM) at     0.31951366 eV
  | Occupation number:      0.00000000
  | Spin channel:        2

  Overall HOMO-LUMO gap:      0.25001224 eV.

  Total energy components:
  | Sum of eigenvalues            :       -4621.28902134 Ha     -125751.67244521 eV
  | XC energy correction          :        -295.33633829 Ha       -8036.51065813 eV
  | XC potential correction       :         383.98146016 Ha       10448.66715319 eV
  | Free-atom electrostatic energy:       -3254.20177473 Ha      -88551.33573264 eV
  | Hartree energy correction     :         -43.22154375 Ha       -1176.11804572 eV
  | van der Waals energy corr.    :           0.00000000 Ha           0.00000000 eV
  | Entropy correction            :           0.00000000 Ha           0.00000000 eV
  | ---------------------------
  | Total energy                  :       -7830.06721795 Ha     -213066.96972851 eV
  | Total energy, T -> 0          :       -7830.06721795 Ha     -213066.96972851 eV  <-- do not rely on this value for anything but (periodic) metals
  | Electronic free energy        :       -7830.06721795 Ha     -213066.96972851 eV

  Derived energy quantities:
  | Kinetic energy                :        7996.79431982 Ha      217603.84500399 eV
  | Electrostatic energy          :      -15531.52519948 Ha     -422634.30407436 eV
  | Energy correction for multipole
  | error in Hartree potential    :          -0.00069063 Ha          -0.01879298 eV
  | Sum of eigenvalues per atom                           :      -31437.91811130 eV
  | Total energy (T->0) per atom                          :      -53266.74243213 eV  <-- do not rely on this value for anything but (periodic) metals
  | Electronic free energy per atom                       :      -53266.74243213 eV

  Self-consistency convergence accuracy:
  | Change of charge/spin density : 0.1039E+01 0.1426E+01
  | Change of sum of eigenvalues  : 0.1094E+04 eV
  | Change of total energy        : -.6814E+02 eV

  End self-consistency iteration #     1       :  max(cpu_time)    wall_clock(cpu1)
  | Time for this iteration                    :        0.315 s           0.315 s
  | Charge density update                      :        0.137 s           0.137 s
  | Density mixing                             :        0.003 s           0.002 s
  | Hartree multipole update                   :        0.003 s           0.002 s
  | Hartree multipole summation                :        0.033 s           0.033 s
  | Integration                                :        0.126 s           0.126 s
  | Solution of K.-S. eqns.                    :        0.009 s           0.009 s
  | Total energy evaluation                    :        0.000 s           0.001 s
------------------------------------------------------------

------------------------------------------------------------
          Begin self-consistency iteration #    2

  Date     :  20220125, Time     :  203710.274
------------------------------------------------------------
  Evaluating new KS density.
  Integration grid: deviation in total charge (<rho> - N_e) =  -5.648450E-08
  | <rho_up-rho_dn> = N_up-N_dn =      5.0000; <|rho_up-rho_dn|> =      6.6827
  Pulay mixing of updated and previous charge densities.

  Evaluating partitioned Hartree potential by multipole expansion.
  | Analytical far-field extrapolation by fixed multipoles:
  | Hartree multipole sum: apparent total charge =  -0.233431E-06
  Summing up the Hartree potential.
  Time summed over all CPUs for potential: real work        0.255 s, elapsed        0.259 s
  | RMS charge density error from multipole expansion :   0.154968E-02

  Integrating Hamiltonian matrix: batch-based integration.
  Time summed over all CPUs for integration: real work        0.984 s, elapsed        1.004 s

  Updating Kohn-Sham eigenvalues, eigenvectors, occupation numbers, and Fermi level.
  Solving generalized eigenproblem
  Solving real symmetric generalised eigenvalue problem by standard ScaLAPACK.
  Using Cholesky factor for transformation
  Using 1-stage real ELPA solver
  Solving real symmetric generalised eigenvalue problem by standard ScaLAPACK.
  Using Cholesky factor for transformation
  Using 1-stage real ELPA solver
  Determining occupation numbers for Kohn-Sham eigenstates.
  | Chemical potential (Fermi level) in eV                 : -.36810562E+01
  | Error in electron count due to remaining E_F inaccuracy: 0.00000000E+00
  | Maximum occupation number of highest empty state:  0.00E+00

  Current spin moment of the entire structure :
  | N = N_up - N_down :    1.00
  | S                 :    0.50
  | J                 :    2.00

  Highest occupied state (VBM) at     -3.72470152 eV
  | Occupation number:      1.00000000
  | Spin channel:        2

  Lowest unoccupied state (CBM) at    -3.42349365 eV
  | Occupation number:      0.00000000
  | Spin channel:        1

  Overall HOMO-LUMO gap:      0.30120787 eV.

  Total energy components:
  | Sum of eigenvalues            :       -4649.22130155 Ha     -126511.74846213 eV
  | XC energy correction          :        -293.75116680 Ha       -7993.37594706 eV
  | XC potential correction       :         381.88888512 Ha       10391.72528918 eV
  | Free-atom electrostatic energy:       -3254.20177473 Ha      -88551.33573264 eV
  | Hartree energy correction     :         -13.68990634 Ha        -372.52130524 eV
  | van der Waals energy corr.    :           0.00000000 Ha           0.00000000 eV
  | Entropy correction            :           0.00000000 Ha           0.00000000 eV
  | ---------------------------
  | Total energy                  :       -7828.97526430 Ha     -213037.25615789 eV
  | Total energy, T -> 0          :       -7828.97526430 Ha     -213037.25615789 eV  <-- do not rely on this value for anything but (periodic) metals
  | Electronic free energy        :       -7828.97526430 Ha     -213037.25615789 eV

  Derived energy quantities:
  | Kinetic energy                :        7984.78021686 Ha      217276.92462895 eV
  | Electrostatic energy          :      -15520.00431436 Ha     -422320.80483979 eV
  | Energy correction for multipole
  | error in Hartree potential    :          -0.00003024 Ha          -0.00082295 eV
  | Sum of eigenvalues per atom                           :      -31627.93711553 eV
  | Total energy (T->0) per atom                          :      -53259.31403947 eV  <-- do not rely on this value for anything but (periodic) metals
  | Electronic free energy per atom                       :      -53259.31403947 eV

  Self-consistency convergence accuracy:
  | Change of charge/spin density : 0.3478E+01 0.5666E+00
  | Change of sum of eigenvalues  : -.7601E+03 eV
  | Change of total energy        : 0.2971E+02 eV

  End self-consistency iteration #     2       :  max(cpu_time)    wall_clock(cpu1)
  | Time for this iteration                    :        0.315 s           0.314 s
  | Charge density update                      :        0.141 s           0.140 s
  | Density mixing                             :        0.002 s           0.002 s
  | Hartree multipole update                   :        0.002 s           0.003 s
  | Hartree multipole summation                :        0.033 s           0.032 s
  | Integration                                :        0.126 s           0.127 s
  | Solution of K.-S. eqns.                    :        0.009 s           0.009 s
  | Total energy evaluation                    :        0.000 s           0.001 s
------------------------------------------------------------

------------------------------------------------------------
          Begin self-consistency iteration #    3

  Date     :  20220125, Time     :  203710.590
------------------------------------------------------------
  Evaluating new KS density.
  Integration grid: deviation in total charge (<rho> - N_e) =  -5.011506E-08
  | <rho_up-rho_dn> = N_up-N_dn =     -3.0000; <|rho_up-rho_dn|> =      4.8093
  Pulay mixing of updated and previous charge densities.

  Evaluating partitioned Hartree potential by multipole expansion.
  | Analytical far-field extrapolation by fixed multipoles:
  | Hartree multipole sum: apparent total charge =  -0.900303E-07
  Summing up the Hartree potential.
  Time summed over all CPUs for potential: real work        0.255 s, elapsed        0.261 s
  | RMS charge density error from multipole expansion :   0.169434E-02

  Integrating Hamiltonian matrix: batch-based integration.
  Time summed over all CPUs for integration: real work        0.991 s, elapsed        1.006 s

  Updating Kohn-Sham eigenvalues, eigenvectors, occupation numbers, and Fermi level.
  Solving generalized eigenproblem
  Solving real symmetric generalised eigenvalue problem by standard ScaLAPACK.
  Using Cholesky factor for transformation
  Using 1-stage real ELPA solver
  Solving real symmetric generalised eigenvalue problem by standard ScaLAPACK.
  Using Cholesky factor for transformation
  Using 1-stage real ELPA solver
  Determining occupation numbers for Kohn-Sham eigenstates.
  | Chemical potential (Fermi level) in eV                 : -.59182099E+01
  | Error in electron count due to remaining E_F inaccuracy: 0.00000000E+00
  | Maximum occupation number of highest empty state:  0.00E+00

  Current spin moment of the entire structure :
  | N = N_up - N_down :    3.00
  | S                 :    1.50
  | J                 :    4.00

  Highest occupied state (VBM) at     -5.92422740 eV
  | Occupation number:      1.00000000
  | Spin channel:        2

  Lowest unoccupied state (CBM) at    -5.89647157 eV
  | Occupation number:      0.00000000
  | Spin channel:        2

  Overall HOMO-LUMO gap:      0.02775582 eV.

  Total energy components:
  | Sum of eigenvalues            :       -4649.97656506 Ha     -126532.30022779 eV
  | XC energy correction          :        -293.61259159 Ha       -7989.60512386 eV
  | XC potential correction       :         381.70566788 Ha       10386.73969445 eV
  | Free-atom electrostatic energy:       -3254.20177473 Ha      -88551.33573264 eV
  | Hartree energy correction     :         -11.68456127 Ha        -317.95308932 eV
  | van der Waals energy corr.    :           0.00000000 Ha           0.00000000 eV
  | Entropy correction            :          -0.00000000 Ha          -0.00000000 eV
  | ---------------------------
  | Total energy                  :       -7827.76982476 Ha     -213004.45447916 eV
  | Total energy, T -> 0          :       -7827.76982476 Ha     -213004.45447916 eV  <-- do not rely on this value for anything but (periodic) metals
  | Electronic free energy        :       -7827.76982476 Ha     -213004.45447916 eV

  Derived energy quantities:
  | Kinetic energy                :        7985.02549974 Ha      217283.59911567 eV
  | Electrostatic energy          :      -15519.18273291 Ha     -422298.44847098 eV
  | Energy correction for multipole
  | error in Hartree potential    :           0.00019972 Ha           0.00543478 eV
  | Sum of eigenvalues per atom                           :      -31633.07505695 eV
  | Total energy (T->0) per atom                          :      -53251.11361979 eV  <-- do not rely on this value for anything but (periodic) metals
  | Electronic free energy per atom                       :      -53251.11361979 eV

  Self-consistency convergence accuracy:
  | Change of charge/spin density : 0.2636E+01 0.7925E+00
  | Change of sum of eigenvalues  : -.2055E+02 eV
  | Change of total energy        : 0.3280E+02 eV

  End self-consistency iteration #     3       :  max(cpu_time)    wall_clock(cpu1)
  | Time for this iteration                    :        0.314 s           0.313 s
  | Charge density update                      :        0.137 s           0.136 s
  | Density mixing                             :        0.004 s           0.004 s
  | Hartree multipole update                   :        0.003 s           0.003 s
  | Hartree multipole summation                :        0.033 s           0.033 s
  | Integration                                :        0.126 s           0.126 s
  | Solution of K.-S. eqns.                    :        0.009 s           0.010 s
  | Total energy evaluation                    :        0.000 s           0.001 s
------------------------------------------------------------

------------------------------------------------------------
          Begin self-consistency iteration #    4

  Date     :  20220125, Time     :  203710.905
------------------------------------------------------------
  Evaluating new KS density.
  Integration grid: deviation in total charge (<rho> - N_e) =  -4.656202E-08
  | <rho_up-rho_dn> = N_up-N_dn =      1.3778; <|rho_up-rho_dn|> =      4.8340
  Pulay mixing of updated and previous charge densities.

  Evaluating partitioned Hartree potential by multipole expansion.
  | Analytical far-field extrapolation by fixed multipoles:
  | Hartree multipole sum: apparent total charge =  -0.142535E-06
  Summing up the Hartree potential.
  Time summed over all CPUs for potential: real work        0.254 s, elapsed        0.258 s
  | RMS charge density error from multipole expansion :   0.198179E-02

  Integrating Hamiltonian matrix: batch-based integration.
  Time summed over all CPUs for integration: real work        0.980 s, elapsed        1.001 s

  Updating Kohn-Sham eigenvalues, eigenvectors, occupation numbers, and Fermi level.
  Solving generalized eigenproblem
  Solving real symmetric generalised eigenvalue problem by standard ScaLAPACK.
  Using Cholesky factor for transformation
  Using 1-stage real ELPA solver
  Solving real symmetric generalised eigenvalue problem by standard ScaLAPACK.
  Using Cholesky factor for transformation
  Using 1-stage real ELPA solver
  Determining occupation numbers for Kohn-Sham eigenstates.
  | Chemical potential (Fermi level) in eV                 : -.52834679E+01
  | Error in electron count due to remaining E_F inaccuracy: 0.00000000E+00
  | Maximum occupation number of highest empty state:  0.00E+00

  Current spin moment of the entire structure :
  | N = N_up - N_down :    3.00
  | S                 :    1.50
  | J                 :    4.00

  Highest occupied state (VBM) at     -5.29454783 eV
  | Occupation number:      1.00000000
  | Spin channel:        2

  Lowest unoccupied state (CBM) at    -5.24466189 eV
  | Occupation number:      0.00000000
  | Spin channel:        2

  Overall HOMO-LUMO gap:      0.04988593 eV.

  Total energy components:
  | Sum of eigenvalues            :       -4648.37821904 Ha     -126488.80701966 eV
  | XC energy correction          :        -293.75076103 Ha       -7993.36490561 eV
  | XC potential correction       :         381.88705029 Ha       10391.67536114 eV
  | Free-atom electrostatic energy:       -3254.20177473 Ha      -88551.33573264 eV
  | Hartree energy correction     :         -12.98892718 Ha        -353.44669165 eV
  | van der Waals energy corr.    :           0.00000000 Ha           0.00000000 eV
  | Entropy correction            :          -0.00000000 Ha          -0.00000000 eV
  | ---------------------------
  | Total energy                  :       -7827.43263168 Ha     -212995.27898842 eV
  | Total energy, T -> 0          :       -7827.43263168 Ha     -212995.27898842 eV  <-- do not rely on this value for anything but (periodic) metals
  | Electronic free energy        :       -7827.43263168 Ha     -212995.27898842 eV

  Derived energy quantities:
  | Kinetic energy                :        7986.09963347 Ha      217312.82778159 eV
  | Electrostatic energy          :      -15519.78150411 Ha     -422314.74186440 eV
  | Energy correction for multipole
  | error in Hartree potential    :           0.00031496 Ha           0.00857060 eV
  | Sum of eigenvalues per atom                           :      -31622.20175491 eV
  | Total energy (T->0) per atom                          :      -53248.81974710 eV  <-- do not rely on this value for anything but (periodic) metals
  | Electronic free energy per atom                       :      -53248.81974710 eV

  Self-consistency convergence accuracy:
  | Change of charge/spin density : 0.1117E+01 0.5071E+00
  | Change of sum of eigenvalues  : 0.4349E+02 eV
  | Change of total energy        : 0.9175E+01 eV

  End self-consistency iteration #     4       :  max(cpu_time)    wall_clock(cpu1)
  | Time for this iteration                    :        0.315 s           0.313 s
  | Charge density update                      :        0.140 s           0.138 s
  | Density mixing                             :        0.004 s           0.004 s
  | Hartree multipole update                   :        0.002 s           0.003 s
  | Hartree multipole summation                :        0.033 s           0.032 s
  | Integration                                :        0.126 s           0.126 s
  | Solution of K.-S. eqns.                    :        0.009 s           0.009 s
  | Total energy evaluation                    :        0.000 s           0.000 s
------------------------------------------------------------

------------------------------------------------------------
          Begin self-consistency iteration #    5

  Date     :  20220125, Time     :  203711.221
------------------------------------------------------------
  Evaluating new KS density.
  Integration grid: deviation in total charge (<rho> - N_e) =  -2.169125E-08
  | <rho_up-rho_dn> = N_up-N_dn =      2.7167; <|rho_up-rho_dn|> =      5.8451
  Pulay mixing of updated and previous charge densities.

  Evaluating partitioned Hartree potential by multipole expansion.
  | Analytical far-field extrapolation by fixed multipoles:
  | Hartree multipole sum: apparent total charge =  -0.384541E-06
  Summing up the Hartree potential.
  Time summed over all CPUs for potential: real work        0.253 s, elapsed        0.257 s
  | RMS charge density error from multipole expansion :   0.228418E-02

  Integrating Hamiltonian matrix: batch-based integration.
  Time summed over all CPUs for integration: real work        0.986 s, elapsed        1.004 s

  Updating Kohn-Sham eigenvalues, eigenvectors, occupation numbers, and Fermi level.
  Solving generalized eigenproblem
  Solving real symmetric generalised eigenvalue problem by standard ScaLAPACK.
  Using Cholesky factor for transformation
  Using 1-stage real ELPA solver
  Solving real symmetric generalised eigenvalue problem by standard ScaLAPACK.
  Using Cholesky factor for transformation
  Using 1-stage real ELPA solver
  Determining occupation numbers for Kohn-Sham eigenstates.
  | Chemical potential (Fermi level) in eV                 : -.50816283E+01
  | Error in electron count due to remaining E_F inaccuracy: 0.00000000E+00
  | Maximum occupation number of highest empty state:  0.00E+00

  Current spin moment of the entire structure :
  | N = N_up - N_down :    3.00
  | S                 :    1.50
  | J                 :    4.00

  Highest occupied state (VBM) at     -5.09951778 eV
  | Occupation number:      1.00000000
  | Spin channel:        2

  Lowest unoccupied state (CBM) at    -5.02837177 eV
  | Occupation number:      0.00000000
  | Spin channel:        2

  Overall HOMO-LUMO gap:      0.07114602 eV.

  Total energy components:
  | Sum of eigenvalues            :       -4646.99030600 Ha     -126451.03998432 eV
  | XC energy correction          :        -293.78582985 Ha       -7994.31917664 eV
  | XC potential correction       :         381.93369416 Ha       10392.94460536 eV
  | Free-atom electrostatic energy:       -3254.20177473 Ha      -88551.33573264 eV
  | Hartree energy correction     :         -14.31823634 Ha        -389.61903430 eV
  | van der Waals energy corr.    :           0.00000000 Ha           0.00000000 eV
  | Entropy correction            :          -0.00000000 Ha          -0.00000000 eV
  | ---------------------------
[...]
  | ---------------------------
  | Total energy                  :       -7827.29617490 Ha     -212991.56581066 eV
  | Total energy, T -> 0          :       -7827.29617490 Ha     -212991.56581066 eV  <-- do not rely on this value for anything but (periodic) metals
  | Electronic free energy        :       -7827.29617490 Ha     -212991.56581066 eV

  Derived energy quantities:
  | Kinetic energy                :        7984.72906244 Ha      217275.53264627 eV
  | Electrostatic energy          :      -15518.20421837 Ha     -422271.82173566 eV
  | Energy correction for multipole
  | error in Hartree potential    :           0.00016504 Ha           0.00449103 eV
  | Sum of eigenvalues per atom                           :      -31577.87866932 eV
  | Total energy (T->0) per atom                          :      -53247.89145266 eV  <-- do not rely on this value for anything but (periodic) metals
  | Electronic free energy per atom                       :      -53247.89145266 eV

  Self-consistency convergence accuracy:
  | Change of charge/spin density : 0.9107E-01 0.9097E-01
  | Change of sum of eigenvalues  : -.2114E+01 eV
  | Change of total energy        : -.1133E-01 eV

  Reaching maximum number of scf iterations (no convergence).
  Switching on the force computation anyway.

  End self-consistency iteration #    99       :  max(cpu_time)    wall_clock(cpu1)
  | Time for this iteration                    :        0.315 s           0.314 s
  | Charge density & force component update    :        0.136 s           0.134 s
  | Density mixing                             :        0.006 s           0.007 s
  | Hartree multipole update                   :        0.002 s           0.002 s
  | Hartree multipole summation                :        0.034 s           0.034 s
  | Integration                                :        0.126 s           0.126 s
  | Solution of K.-S. eqns.                    :        0.009 s           0.009 s
  | Total energy evaluation                    :        0.000 s           0.001 s
------------------------------------------------------------

------------------------------------------------------------
          Begin self-consistency iteration #  100

  Date     :  20220125, Time     :  203757.064
------------------------------------------------------------
  Evaluating new KS density and force components.
  Integration grid: deviation in total charge (<rho> - N_e) =   1.401332E-10
  | <rho_up-rho_dn> = N_up-N_dn =      3.3635; <|rho_up-rho_dn|> =      4.9559
  Pulay mixing of updated and previous charge densities.

  Evaluating partitioned Hartree potential by multipole expansion.
  | Analytical far-field extrapolation by fixed multipoles:
  | Hartree multipole sum: apparent total charge =  -0.136402E-05
  Summing up the Hartree potential.
  Time summed over all CPUs for potential: real work        0.703 s, elapsed        0.720 s
  | RMS charge density error from multipole expansion :   0.290124E-02

  Integrating Hamiltonian matrix: batch-based integration.
  Time summed over all CPUs for integration: real work        0.969 s, elapsed        0.988 s

  Updating Kohn-Sham eigenvalues, eigenvectors, occupation numbers, and Fermi level.
  Solving generalized eigenproblem
  Solving real symmetric generalised eigenvalue problem by standard ScaLAPACK.
  Using Cholesky factor for transformation
  Using 1-stage real ELPA solver
  Solving real symmetric generalised eigenvalue problem by standard ScaLAPACK.
  Using Cholesky factor for transformation
  Using 1-stage real ELPA solver
  Determining occupation numbers for Kohn-Sham eigenstates.
  | Chemical potential (Fermi level) in eV                 : -.38611883E+01
  | Error in electron count due to remaining E_F inaccuracy: 0.00000000E+00
  | Maximum occupation number of highest empty state:  0.00E+00

  Current spin moment of the entire structure :
  | N = N_up - N_down :    1.00
  | S                 :    0.50
  | J                 :    2.00

  Highest occupied state (VBM) at     -3.90364254 eV
  | Occupation number:      1.00000000
  | Spin channel:        2

  Lowest unoccupied state (CBM) at    -3.78572319 eV
  | Occupation number:      0.00000000
  | Spin channel:        2

  Overall HOMO-LUMO gap:      0.11791935 eV.

  Total energy components:
  | Sum of eigenvalues            :       -4641.12345200 Ha     -126291.39476443 eV
  | XC energy correction          :        -293.83855945 Ha       -7995.75402211 eV
  | XC potential correction       :         381.99864883 Ha       10394.71211167 eV
  | Free-atom electrostatic energy:       -3255.75159935 Ha      -88593.50860654 eV
  | Hartree energy correction     :         -18.60494066 Ha        -506.26619401 eV
  | van der Waals energy corr.    :           0.00000000 Ha           0.00000000 eV
  | Entropy correction            :           0.00000000 Ha           0.00000000 eV
  | ---------------------------
  | Total energy                  :       -7827.31990265 Ha     -212992.21147543 eV
  | Total energy, T -> 0          :       -7827.31990265 Ha     -212992.21147543 eV  <-- do not rely on this value for anything but (periodic) metals
  | Electronic free energy        :       -7827.31990265 Ha     -212992.21147543 eV

  Derived energy quantities:
  | Kinetic energy                :        7984.66895124 Ha      217273.89693727 eV
  | Electrostatic energy          :      -15518.15029443 Ha     -422270.35439059 eV
  | Energy correction for multipole
  | error in Hartree potential    :           0.00060013 Ha           0.01633026 eV
  | Sum of eigenvalues per atom                           :      -31572.84869111 eV
  | Total energy (T->0) per atom                          :      -53248.05286886 eV  <-- do not rely on this value for anything but (periodic) metals
  | Electronic free energy per atom                       :      -53248.05286886 eV

  atomic forces [eV/Ang]:
  -----------------------
  atom #    1
   Hellmann-Feynman              : 0.196890E+01 -.128224E+02 0.220933E-04
   Multipole                     : 0.865505E-01 0.160199E+00 0.629392E-07
   Pulay + GGA                   : 0.118784E+01 0.915177E+01 0.187879E-06
   Van der Waals                 : 0.000000E+00 0.000000E+00 0.000000E+00
   ----------------------------------------------------------------
   Total forces(   1)            : 0.324329E+01 -.351046E+01 0.223441E-04
  atom #    2
   Hellmann-Feynman              : -.266313E+01 -.734178E+01 0.219790E-04
   Multipole                     : -.150179E-01 0.163991E+00 0.722412E-07
   Pulay + GGA                   : -.128807E+01 0.971580E+01 0.193908E-06
   Van der Waals                 : 0.000000E+00 0.000000E+00 0.000000E+00
   ----------------------------------------------------------------
   Total forces(   2)            : -.396621E+01 0.253801E+01 0.222451E-04
  atom #    3
   Hellmann-Feynman              : -.670441E+01 -.106903E+02 -.776752E-04
   Multipole                     : 0.528241E-01 0.561669E-01 0.530205E-06
   Pulay + GGA                   : -.699018E+00 0.137706E+02 0.265951E-05
   Van der Waals                 : 0.000000E+00 0.000000E+00 0.000000E+00
   ----------------------------------------------------------------
   Total forces(   3)            : -.735060E+01 0.313649E+01 -.744854E-04
  atom #    4
   Hellmann-Feynman              : -.193697E+01 0.415854E+02 -.134985E-04
   Multipole                     : -.284676E-01 -.438585E+00 -.213839E-07
   Pulay + GGA                   : -.212858E+00 -.430768E+02 0.101879E-05
   Van der Waals                 : 0.000000E+00 0.000000E+00 0.000000E+00
   ----------------------------------------------------------------
   Total forces(   4)            : -.217829E+01 -.193001E+01 -.125011E-04

  Self-consistency convergence accuracy:
  | Change of charge/spin density : 0.1169E+00 0.1157E+00
  | Change of sum of eigenvalues  : 0.2012E+02 eV
  | Change of total energy        : -.6457E+00 eV
  | Change of forces              : 0.2279E+02 eV/A

  End self-consistency iteration #   100       :  max(cpu_time)    wall_clock(cpu1)
  | Time for this iteration                    :        0.975 s           0.970 s
  | Charge density & force component update    :        0.740 s           0.736 s
  | Density mixing                             :        0.006 s           0.006 s
  | Hartree multipole update                   :        0.002 s           0.003 s
  | Hartree multipole summation                :        0.091 s           0.090 s
  | Integration                                :        0.124 s           0.124 s
  | Solution of K.-S. eqns.                    :        0.009 s           0.009 s
  | Total energy evaluation                    :        0.001 s           0.001 s
------------------------------------------------------------
  Obtaining max. number of non-zero basis functions in each batch .
  Evaluating KS electron density on previously omitted grid points.
  Evaluating non-empirical van der Waals correction (Tkatchenko/Scheffler 2009).
  Performing Hirshfeld analysis of fragment charges and moments.
  ----------------------------------------------------------------------
  | Atom     1: Co
  |   Hirshfeld charge        :      0.00470119
  |   Free atom volume        :    100.22352929
  |   Hirshfeld volume        :     84.60056722
  |   Hirshfeld spin moment   :      1.66215967
  |   Hirshfeld dipole vector :     -0.39173046      -0.10168495      -0.00000010
  |   Hirshfeld dipole moment :      0.40471297
  |   Hirshfeld second moments:      0.38974423      -0.01449106       0.00000009
  |                                 -0.01449106       0.16840970      -0.00000004
  |                                  0.00000009      -0.00000004       0.36267344
  ----------------------------------------------------------------------
  | Atom     2: Co
  |   Hirshfeld charge        :      0.01201040
  |   Free atom volume        :    100.22352929
  |   Hirshfeld volume        :     84.45762280
  |   Hirshfeld spin moment   :      1.70784874
  |   Hirshfeld dipole vector :      0.38275483      -0.13402133      -0.00000010
  |   Hirshfeld dipole moment :      0.40554036
  |   Hirshfeld second moments:      0.36951884      -0.01852930      -0.00000009
  |                                 -0.01852930       0.17997223      -0.00000003
  |                                 -0.00000009      -0.00000003       0.38504090
  ----------------------------------------------------------------------
  | Atom     3: Zr
  |   Hirshfeld charge        :      0.24646130
  |   Free atom volume        :    209.33552215
  |   Hirshfeld volume        :    180.46602705
  |   Hirshfeld spin moment   :      0.07982461
  |   Hirshfeld dipole vector :     -0.03286561      -0.05633439      -0.00000033
  |   Hirshfeld dipole moment :      0.06522049
  |   Hirshfeld second moments:      0.75142993      -0.00656390       0.00000000
  |                                 -0.00656390      -0.13562352      -0.00000001
  |                                  0.00000000      -0.00000001       0.98450339
  ----------------------------------------------------------------------
  | Atom     4: Co
  |   Hirshfeld charge        :     -0.26803521
  |   Free atom volume        :    100.22352929
  |   Hirshfeld volume        :     95.65926999
  |   Hirshfeld spin moment   :     -0.73731981
  |   Hirshfeld dipole vector :      0.00234929       0.23930525      -0.00000001
  |   Hirshfeld dipole moment :      0.23931678
  |   Hirshfeld second moments:      0.06148504       0.02440416       0.00000000
  |                                  0.02440416       0.04038781       0.00000022
  |                                  0.00000000       0.00000022       0.04487655
  ----------------------------------------------------------------------


  Total energy components:
  | Sum of eigenvalues            :       -4641.12345200 Ha     -126291.39476443 eV
  | XC energy correction          :        -293.83855945 Ha       -7995.75402211 eV
  | XC potential correction       :         381.99864883 Ha       10394.71211167 eV
  | Free-atom electrostatic energy:       -3255.75159935 Ha      -88593.50860654 eV
  | Hartree energy correction     :         -18.60494066 Ha        -506.26619401 eV
  | van der Waals energy corr.    :          -0.00185823 Ha          -0.05056509 eV
  | Entropy correction            :           0.00000000 Ha           0.00000000 eV
  | ---------------------------
  | Total energy                  :       -7827.32176088 Ha     -212992.26204052 eV
  | Total energy, T -> 0          :       -7827.32176088 Ha     -212992.26204052 eV  <-- do not rely on this value for anything but (periodic) metals
  | Electronic free energy        :       -7827.32176088 Ha     -212992.26204052 eV

  Derived energy quantities:
  | Kinetic energy                :        7984.66895124 Ha      217273.89693727 eV
  | Electrostatic energy          :      -15518.15029443 Ha     -422270.35439059 eV
  | Energy correction for multipole
  | error in Hartree potential    :           0.00060013 Ha           0.01633026 eV
  | Sum of eigenvalues per atom                           :      -31572.84869111 eV
  | Total energy (T->0) per atom                          :      -53248.06551013 eV  <-- do not rely on this value for anything but (periodic) metals
  | Electronic free energy per atom                       :      -53248.06551013 eV

  atomic forces [eV/Ang]:
  -----------------------
  atom #    1
   Hellmann-Feynman              : 0.196890E+01 -.128224E+02 0.220933E-04
   Multipole                     : 0.865505E-01 0.160199E+00 0.629392E-07
   Pulay + GGA                   : 0.118784E+01 0.915177E+01 0.187879E-06
   Van der Waals                 : 0.243577E-02 0.123304E-01 -.285177E-11
   ----------------------------------------------------------------
   Total forces(   1)            : 0.324573E+01 -.349813E+01 0.223441E-04
  atom #    2
   Hellmann-Feynman              : -.266313E+01 -.734178E+01 0.219790E-04
   Multipole                     : -.150179E-01 0.163991E+00 0.722412E-07
   Pulay + GGA                   : -.128807E+01 0.971580E+01 0.193908E-06
   Van der Waals                 : -.245554E-02 0.124119E-01 -.286461E-11
   ----------------------------------------------------------------
   Total forces(   2)            : -.396867E+01 0.255042E+01 0.222451E-04
  atom #    3
   Hellmann-Feynman              : -.670441E+01 -.106903E+02 -.776752E-04
   Multipole                     : 0.528241E-01 0.561669E-01 0.530205E-06
   Pulay + GGA                   : -.699018E+00 0.137706E+02 0.265951E-05
   Van der Waals                 : -.949212E-06 0.160118E-02 0.292729E-11
   ----------------------------------------------------------------
   Total forces(   3)            : -.735060E+01 0.313809E+01 -.744854E-04
  atom #    4
   Hellmann-Feynman              : -.193697E+01 0.415854E+02 -.134985E-04
   Multipole                     : -.284676E-01 -.438585E+00 -.213839E-07
   Pulay + GGA                   : -.212858E+00 -.430768E+02 0.101879E-05
   Van der Waals                 : 0.207176E-04 -.263436E-01 0.278909E-11
   ----------------------------------------------------------------
   Total forces(   4)            : -.217827E+01 -.195635E+01 -.125011E-04
  Timings for VdW correction (Tkatchenko-Scheffler 2009 or later):
  | CPU time:        0.016 s, Wall clock time:        0.016 s.
  Removing unitary transformations (pure translations, rotations) from forces on atoms.
  Atomic forces before filtering:
  | Net force on center of mass :  -.102518E+02 0.234030E+00 -.423973E-04 eV/A
  | Net torque on center of mass:  -.146431E-03 0.906640E-07 0.150720E+02 eV
  Atomic forces after filtering:
  | Net force on center of mass :  0.000000E+00 0.356812E-15 0.544452E-20 eV/A
  | Net torque on center of mass:  -.576223E-19 0.000000E+00 0.453161E-14 eV

  Energy and forces in a compact form:
  | Total energy uncorrected      :         -0.212992262040520E+06 eV
  | Total energy corrected        :         -0.212992262040520E+06 eV  <-- do not rely on this value for anything but (periodic) metals
  | Electronic free energy        :         -0.212992262040520E+06 eV
  Total atomic forces (unitary forces cleaned) [eV/Ang]:
  |   1          0.414362921681056E+01         -0.246541300518405E+01          0.138405777147311E-04
  |   2         -0.307076823237074E+01          0.140068926785760E+01          0.138284893658285E-04
  |   3         -0.418913778059260E+01          0.307958020924789E+01         -0.570351196545278E-04
  |   4          0.311627679615279E+01         -0.201485647192144E+01          0.293660525739683E-04

  ------------------------------------ 
  Start decomposition of the XC Energy 
  ------------------------------------ 
  Hartree-Fock part   :          0.000000000 Ha              0.000000000 eV
  ------------------------------------ 
  X Energy            :       -288.146742527 Ha          -7840.871803327 eV
  C Energy GGA        :         -5.691816922 Ha           -154.882218778 eV
  Total XC Energy     :       -293.838559449 Ha          -7995.754022105 eV
  LDA X and C from self-consistent density 
  X Energy LDA        :       -272.075069395 Ha          -7403.539326172 eV
  C Energy LDA        :        -10.666854750 Ha           -290.259886011 eV
  ------------------------------------ 
  End decomposition of the XC Energy 
  ------------------------------------ 

 ***********************************************************
 *
 * WARNING! SELF-CONSISTENCY CYCLE DID NOT CONVERGE
 * USING YOUR PRESELECTED ACCURACY CRITERIA.
 * DO NOT RELY ON ANY FINAL DATA WITHOUT FURTHER CHECKS.
 *
 ***********************************************************
 * NO POSTPROCESSING WILL BE DONE
 * IF YOU WANT POSTPROCESSING ANYWAY, SET postprocess_anyway TO .true.
 ***********************************************************

   One or more s.c.f. cycles took more than 50 s.c.f. iterations.
   It might be worth adjusting your convergence settings. For example,
   metals need a larger broadening and a smaller "charge_mix_param" value than semiconductors.

------------------------------------------------------------
          Leaving FHI-aims.
          Date     :  20220125, Time     :  203758.066

          Computational steps:
          | Number of self-consistency cycles          :          147
          | Number of relaxation steps                 :            1

          Detailed time accounting                     :  max(cpu_time)    wall_clock(cpu1)
          | Total time                                 :       49.229 s          49.497 s
          | Preparation time                           :        1.025 s           1.031 s
          | Grid partitioning                          :        0.061 s           0.057 s
          | Preloading free-atom quantities on grid    :        0.041 s           0.040 s
          | Free-atom superposition energy             :        0.024 s           0.024 s
          | Total time for integrations                :       18.609 s          18.603 s
          | Total time for solution of K.-S. equations :        1.321 s           1.343 s
          | Total time for EV reorthonormalization     :        0.004 s           0.003 s
          | Total time for density & force components  :       21.530 s          21.347 s
          | Total time for mixing                      :        0.879 s           0.877 s
          | Total time for Hartree multipole update    :        0.365 s           0.374 s
          | Total time for Hartree multipole sum       :        5.046 s           5.055 s
          | Total time for total energy evaluation     :        0.029 s           0.083 s
          | Total time for scaled ZORA corrections     :        0.000 s           0.000 s
          | Total time for vdW correction              :        0.033 s           0.033 s

------------------------------------------------------------
 *** scf_solver: SCF cycle not converged.
