  MPI-parallelism will be employed.
------------------------------------------------------------
          Invoking FHI-aims ...
          Version 052014
          Git rev. (modified): 096c982 Merge branch master of fhiaims:/pub/localo[...]
          Compiled on 2016/12/16 at 15:22:01 on host login02.hpc.iitd.ac.in.

          When using FHI-aims, please cite the following reference:

          Volker Blum, Ralf Gehrke, Felix Hanke, Paula Havu,
          Ville Havu, Xinguo Ren, Karsten Reuter, and Matthias Scheffler,
          'Ab Initio Molecular Simulations with Numeric Atom-Centered Orbitals: FHI-aims',
          Computer Physics Communications 180, 2175-2196 (2009)

          For any questions about FHI-aims, please visit the aimsclub website
          with its forums and wiki. Contributions to both the forums and the
          wiki are warmly encouraged - they are for you, and everyone is welcome there.

------------------------------------------------------------

  Date     :  20220205, Time     :  091830.372
  Time zero on CPU 1             :   0.118330000000000E-01  s.
  Internal wall clock time zero  :           413284710.372  s.

  Using        8 parallel tasks.
  Task        0 on host vsky033 reporting.
  Task        1 on host vsky033 reporting.
  Task        2 on host vsky033 reporting.
  Task        3 on host vsky033 reporting.
  Task        4 on host vsky033 reporting.
  Task        5 on host vsky033 reporting.
  Task        6 on host vsky033 reporting.
  Task        7 on host vsky033 reporting.

  Performing system and environment tests:
  | Environment variable OMP_NUM_THREADS correctly set to 1.
  | Stacksize not measured: no C compiler
  | Checking for scalapack...
  | Testing pdtran()...
  | All pdtran() tests passed.

  Obtaining array dimensions for all initial allocations:
  
  -----------------------------------------------------------------------
  Parsing control.in (first pass over file, find array dimensions only).
  The contents of control.in will be repeated verbatim below
  unless switched off by setting 'verbatim_writeout .false.' .
  in the first line of control.in .
  -----------------------------------------------------------------------
  
    xc               pbe
    spin             collinear
    default_initial_moment 0
    relativistic     atomic_zora scalar 1e-9
    occupation_type  gaussian 0.001
    charge	0
    vdw_correction_hirshfeld
    KS_method        scalapack_fast
    mixer            pulay
    charge_mix_param  0.4
    spin_mix_param    0.6
    sc_accuracy_rho  1E-4
    sc_accuracy_eev  1E-5
    sc_accuracy_etot 1E-5
    sc_iter_limit    100
    empty_states     5
    ####### keywords for DOS########
    k_grid  6 6 1
  ##########################
  #  relax_geometry trm 5E-5
  #  sc_accuracy_forces 1e-6
  ##########################
    output dos -20 20 10000 0.05
    dos_kgrid_factors 2 2 1
  
  ################################################################################
  #
  #  FHI-aims code project
  # Volker Blum, Fritz Haber Institute Berlin, 2009
  #
  #  Suggested "tight" defaults for C atom (to be pasted into control.in file)
  #
  ################################################################################
    species        C
  #     global species definitions
      nucleus             6
      mass                12.0107
  #
      l_hartree           6
  #
      cut_pot             4.0  2.0  1.0
      basis_dep_cutoff    1e-4
  #
      radial_base         34 7.0
      radial_multiplier   2
      angular_grids specified
        division   0.2187   50
        division   0.4416  110
        division   0.6335  194
        division   0.7727  302
        division   0.8772  434
  #      division   0.9334  590
  #      division   0.9924  770
  #      division   1.0230  974
  #      division   1.5020 1202
  #     outer_grid  974
        outer_grid  434
  ################################################################################
  #
  #  Definition of "minimal" basis
  #
  ################################################################################
  #     valence basis states
      valence      2  s   2.
      valence      2  p   2.
  #     ion occupancy
      ion_occ      2  s   1.
      ion_occ      2  p   1.
  ################################################################################
  #
  #  Suggested additional basis functions. For production calculations,
  #  uncomment them one after another (the most important basis functions are
  #  listed first).
  #
  #  Constructed for dimers: 1.0 A, 1.25 A, 1.5 A, 2.0 A, 3.0 A
  #
  ################################################################################
  #  "First tier" - improvements: -1214.57 meV to -155.61 meV
       hydro 2 p 1.7
       hydro 3 d 6
       hydro 2 s 4.9
  #  "Second tier" - improvements: -67.75 meV to -5.23 meV
       hydro 4 f 9.8
       hydro 3 p 5.2
       hydro 3 s 4.3
       hydro 5 g 14.4
       hydro 3 d 6.2
  #  "Third tier" - improvements: -2.43 meV to -0.60 meV
  #     hydro 2 p 5.6
  #     hydro 2 s 1.4
  #     hydro 3 d 4.9
  #     hydro 4 f 11.2
  #  "Fourth tier" - improvements: -0.39 meV to -0.18 meV
  #     hydro 2 p 2.1
  #     hydro 5 g 16.4
  #     hydro 4 d 13.2
  #     hydro 3 s 13.6
  #     hydro 4 f 17.6
  #  Further basis functions - improvements: -0.08 meV and below
  #     hydro 3 s 2
  #     hydro 3 p 6
  #     hydro 4 d 20
  ################################################################################
  #
  # For methods that use the localized form of the "resolution of identity" for
  # the two-electron Coulomb operator (RI_method LVL), particularly Hartree-Fock and
  # hybrid density functional calculations, the highest accuracy can be obtained by
  # uncommenting the line beginning with "for_aux"  below, thus adding an extra g radial
  # function to the construction of the product basis set for the expansion.
  # See Ref. New J. Phys. 17, 093020 (2015) for more information, particularly Figs. 1 and 6.
  #
  ################################################################################
  #
  # for_aux hydro 5 g 6.0
  
  -----------------------------------------------------------------------
  Completed first pass over input file control.in .
  -----------------------------------------------------------------------
  
  
  -----------------------------------------------------------------------
  Parsing geometry.in (first pass over file, find array dimensions only).
  The contents of geometry.in will be repeated verbatim below
  unless switched off by setting 'verbatim_writeout .false.' .
  in the first line of geometry.in .
  -----------------------------------------------------------------------
  
  lattice_vector   2.1304216  -1.2299995   0.0000000
  lattice_vector   0.0000000   2.4599989   0.0000000
  lattice_vector   0.0000000   0.0000000   6.8000000
  
  atom_frac                      -0.666667  -0.333333   0.500000  C
  atom_frac                       0.666667   0.333333   0.500000  C
  
  
  -----------------------------------------------------------------------
  Completed first pass over input file geometry.in .
  -----------------------------------------------------------------------
  

  Basic array size parameters:
  | Number of species                 :        1
  | Number of atoms                   :        2
  | Number of lattice vectors         :        3
  | Max. basis fn. angular momentum   :        4
  | Max. atomic/ionic basis occupied n:        2
  | Max. number of basis fn. types    :        2
  | Max. radial fns per species/type  :        8
  | Max. logarithmic grid size        :     1277
  | Max. radial integration grid size :       69
  | Max. angular integration grid size:      434
  | Max. angular grid division number :        8
  | Radial grid for Hartree potential :     1277
  | Number of spin channels           :        2

------------------------------------------------------------
          Reading file control.in.
------------------------------------------------------------
  XC: Using PBE gradient-corrected functionals.
  Spin treatment: Spin density functional theory - collinear spins.
  Initial spin moment per atom:   0.0000
  Scalar relativistic treatment of kinetic energy: on-site free-atom approximation to ZORA.
  Occupation type: Gaussian broadening, width =   0.100000E-02 eV.
  Charge =   0.000000E+00: Neutral system requested explicitly.
  Using non-empirical van der Waals correction (Hirshfeld partitioning):
  Kohn-Sham eigenvalues and eigenfunctions calculated by the ELPA eigensolver library.
  Using pulay charge density mixing.
  Charge density mixing - mixing parameter:     0.4000
  Spin density mixing - mixing parameter:     0.6000
  Convergence accuracy of self-consistent charge density: 0.1000E-03
  Convergence accuracy of sum of eigenvalues: 0.1000E-04
  Convergence accuracy of total energy: 0.1000E-04
  Maximum number of s.-c. iterations  :   100
  Number of empty states per atom:        5
  Found k-point grid:         6         6         1
  Calculating density of states with
  | energy interval :-20.000000 20.000000
  | points & broadening : 10000  0.050000
  Found k-point grid multipliers for perturbative DOS :         2         2         1
 
  Reading configuration options for species C                   .
  | Found nuclear charge :   6.0000
  | Found atomic mass :    12.0107000000000      amu
  | Found l_max for Hartree potential  :   6
  | Found cutoff potl. onset [A], width [A], scale factor :    4.00000    2.00000    1.00000
  | Threshold for basis-dependent cutoff potential is   0.100000E-03
  | Found data for basic radial integration grid :    34 points, outermost radius =    7.000 A
  | Found multiplier for basic radial grid :   2
  | Found angular grid specification: user-specified.
  | Specified grid contains     6 separate shells.
  | Check grid settings after all constraints further below.
  | Found free-atom valence shell :  2 s   2.000
  | Found free-atom valence shell :  2 p   2.000
  | No ionic wave fns used. Skipping ion_occ.
  | No ionic wave fns used. Skipping ion_occ.
  | Found hydrogenic basis function :  2 p   1.700
  | Found hydrogenic basis function :  3 d   6.000
  | Found hydrogenic basis function :  2 s   4.900
  | Found hydrogenic basis function :  4 f   9.800
  | Found hydrogenic basis function :  3 p   5.200
  | Found hydrogenic basis function :  3 s   4.300
  | Found hydrogenic basis function :  5 g  14.400
  | Found hydrogenic basis function :  3 d   6.200
  Species C                   : Missing cutoff potential type.
  Defaulting to exp(1/x)/(1-x)^2 type cutoff potential.
  Species C : No 'logarithmic' tag. Using default grid for free atom:
  | Default logarithmic grid data [bohr] : 0.1000E-03 0.1000E+03 0.1012E+01
  Species C : On-site basis accuracy parameter (for Gram-Schmidt orthonormalisation) not specified.
  Using default value basis_acc =  0.1000000E-03.
  Species C                   : Using default innermost maximum threshold i_radial=  2 for radial functions.
  Species C                   : Default cutoff onset for free atom density etc. : 0.40000000E+01 AA.
  Species C                   : Basic radial grid will be enhanced according to radial_multiplier =   2, to contain    69 grid points.
 
  Finished reading input file 'control.in'. Consistency checks are next.
 
  Target number of points in a grid batch is not set. Defaulting to  100
  Method for grid partitioning is not set. Defaulting to parallel hash+maxmin partitioning.
  Batch size limit is not set. Defaulting to    200
  By default, will store active basis functions for each batch.
  If in need of memory, prune_basis_once .false. can be used to disable this option.
  communication_type for Hartree potential was not specified.
  Defaulting to calc_hartree .
  Pulay mixer: Number of relevant iterations not set.
  Defaulting to    8 iterations.
  Pulay mixer: Number of initial linear mixing iterations not set.
  Defaulting to    0 iterations.
  Work space size for distributed Hartree potential not set.
  Defaulting to   0.200000E+03 MB.
  Algorithm-dependent basis array size parameters:
  | n_max_pulay                         :        8
  Calculation of forces was not defined in control.in. No forces will be calculated.
  Geometry relaxation not requested: no relaxation will be performed.
  No accuracy limit for integral partition fn. given. Defaulting to 0.1000E-14.
  No threshold value for u(r) in integrations given. Defaulting to 0.1000E-05.
  No accuracy for occupation numbers given. Defaulting to 0.1000E-07.
  No threshold value for occupation numbers given. Defaulting to 0.0000E+00.
  No accuracy for fermi level given. Defaulting to 0.1000E-19.
  Maximum # of iterations to find E_F not set. Defaulting to  200.
 * You have    36 k-points in your system, but only     8 MPI-tasks available.
 * In this case using ScaLAPACK is not necessary / supported.
 * Switching to default eigenvalue solver (lapack_fast) instead.
  Will not use alltoall communication since running on < 1024 CPUs.
  Threshold for basis singularities not set.
  Default threshold for basis singularities: 0.1000E-04
  partition_type (choice of integration weights) for integrals was not specified.
  | Using a version of the partition function of Stratmann and coworkers ('stratmann_smoother').
  | At each grid point, the set of atoms used to build the partition table is smoothly restricted to
  | only those atoms whose free-atom density would be non-zero at that grid point.
  Partitioning for Hartree potential was not defined. Using partition_type for integrals.
  | Adjusted default value of keyword multip_moments_threshold to:       0.10000000E-11
  | This value may affect high angular momentum components of the Hartree potential in periodic systems.
  Angular momentum expansion for Kerker preconditioner not set explicitly.
  | Using default value of   0
  No explicit requirement for turning off preconditioner.
  | By default, it will be turned off when the charge convergence reaches
  | sc_accuracy_rho  =   0.100000E-03
  | sc_accuracy_eev  =   0.100000E-04
  | sc_accuracy_etot =   0.100000E-04
  No special mixing parameter while Kerker preconditioner is on.
  Using default: charge_mix_param =     0.4000.
  No q(lm)/r^(l+1) cutoff set for long-range Hartree potential.
  | Using default value of  0.100000E-09 .
  | Verify using the multipole_threshold keyword.
  Defaulting to new monopole extrapolation.
  Density update method: automatic selection selected.
  Using density matrix based charge density update.
  Using density matrix based charge density update.
  Using packed matrix style: index .
  Defaulting to use time-reversal symmetry for k-point grid.
  Using the following vdw_convergence_threshold for supercell sums
  over the Tkatchenko-Scheffler correction: 0.100000E-04 eV.
------------------------------------------------------------


------------------------------------------------------------
          Reading geometry description geometry.in.
------------------------------------------------------------
  Input structure read successfully.
  The structure contains        2 atoms,  and a total of         12.000 electrons.

  Input geometry:
  | Unit cell:
  |         2.130422        -1.229999         0.000000
  |         0.000000         2.459999         0.000000
  |         0.000000         0.000000         6.800000
  | Atomic structure:
  |       Atom                x [A]            y [A]            z [A]
  |    1: Species C             -1.420282         0.000001         3.400000
  |    2: Species C              1.420282        -0.000001         3.400000
  |

  | The smallest distance between any two atoms is         1.42027960 AA.
  |
  | The first atom of this pair is atom number                      2 .
  | The second atom of this pair is atom number                     1 .
  | Wigner-Seitz cell of the first atom image           1     0     0 .
  | (The Wigner-Seitz cell of the second atom is 0 0 0  by definition.)

  Quantities derived from the lattice vectors:
  | Reciprocal lattice vector 1:  2.949268 -0.000000  0.000000
  | Reciprocal lattice vector 2:  1.474634  2.554142  0.000000
  | Reciprocal lattice vector 3:  0.000000  0.000000  0.923998
  | Unit cell volume                               :   0.356377E+02  A^3

  Initial moments and charges:
  |  Atom   Moment         Charge        Species
  |     1   0.000000E+00   0.000000E+00   C
  |     2   0.000000E+00   0.000000E+00   C

  Structure-dependent array size parameters: 
  | Number of distinct atom types in initial rho :        1
  | Maximum number of distinct radial functions  :       11
  | Maximum number of basis functions            :       78
  | Number of Kohn-Sham states (occupied + empty):       11
------------------------------------------------------------

------------------------------------------------------------
          Preparing all fixed parts of the calculation.
------------------------------------------------------------
  Determining machine precision:
    2.225073858507201E-308
  Setting up grids for atomic and cluster calculations.

  Creating wave function, potential, and density for free atoms.

  Species: C

  List of occupied orbitals and eigenvalues:
    n    l              occ      energy [Ha]    energy [eV]
    1    0           2.0000       -10.049212      -273.4530
    2    0           2.0000        -0.504761       -13.7352
    2    1           2.0000        -0.193631        -5.2690

  Spin-polarized or charged system:
  Charge density initialized according to selected moments and charges.

  Creating spin-polarized density from free atoms.

  Species: C
  Charge:   0.000000
  Moment:   0.000000

  List of occupied orbitals and eigenvalues:
    n    l      energy [Ha]    energy [eV]    occupation
  Spin-up
    1    0       -10.049212      -273.4530     1.00000000
    2    0        -0.504761       -13.7352     1.00000000
    2    1        -0.193631        -5.2690     1.00000000
  Spin-down
    1    0       -10.049212      -273.4530     1.00000000
    2    0        -0.504761       -13.7352     1.00000000
    2    1        -0.193631        -5.2690     1.00000000

  Creating fixed part of basis set: Ionic, confined, hydrogenic.
 
  C                    hydrogenic:
 
  List of hydrogenic basis orbitals: 
    n    l      effective z      eigenvalue [eV]  inner max. [A]     outer max. [A]     outer radius [A]   
    2    1         1.700000        -9.8152           1.245706           1.245706           5.401630
    3    2         6.000000       -54.4226           0.792453           0.792453           4.178599
    2    0         4.900000       -81.6681           0.082559           0.562749           3.353238
    4    3         9.800000       -81.6681           0.863254           0.863254           4.028125
    3    1         5.200000       -40.8774           0.305389           1.215618           4.898362
    3    0         4.300000       -27.9508           0.091041           1.610311           5.401630
    5    4        14.400000      -112.8510           0.917666           0.917666           3.883070
    3    2         6.200000       -58.1113           0.763917           0.763917           4.077671
 

  Adding cutoff potential to free-atom effective potential.
  Creating atomic-like basis functions for current effective potential.

  Species C                   :

  List of atomic basis orbitals and eigenvalues:
    n    l      energy [Ha]    energy [eV]    outer radius [A]
    1    0       -10.049212      -273.4530       1.934409
    2    0        -0.504761       -13.7352       5.271162
    2    1        -0.193631        -5.2690       5.401630

  Assembling full basis from fixed parts.
  | Species C :   atomic orbital   1 s accepted.
  | Species C :    hydro orbital   2 s accepted.
  | Species C :   atomic orbital   2 s accepted.
  | Species C :    hydro orbital   3 s accepted.
  | Species C :    hydro orbital   3 p accepted.
  | Species C :   atomic orbital   2 p accepted.
  | Species C :    hydro orbital   2 p accepted.
  | Species C :    hydro orbital   3 d accepted.
  | Species C :    hydro orbital   3 d accepted.
  | Species C :    hydro orbital   4 f accepted.
  | Species C :    hydro orbital   5 g accepted.
 
  Basis size parameters after reduction:
  | Total number of radial functions:       11
  | Total number of basis functions :       78
 
  Testing on-site integration grid accuracy.
  |  Species  Function  <phi|h_atom|phi> (log., in eV)  <phi|h_atom|phi> (rad., in eV)
           1        1               -273.4529725981               -273.4529710451
           1        2                -10.7721037329                -10.7721022102
           1        3                 17.6044132585                 17.6044162052
           1        4                 53.7706460564                 53.7706913681
           1        5                 15.0973290351                 15.0973256011
           1        6                  3.8545134677                  3.8545724657
           1        7                 12.1156992586                 12.1182024423
           1        8                 29.4352039288                 29.4352041805
           1        9                 54.8741144697                 54.8740268719
           1       10                 59.3556032036                 59.3556031370
           1       11                 93.4551837140                 93.4551837996

  Preparing densities etc. for the partition functions (integrals / Hartree potential).

  Preparations completed.
  max(cpu_time)          :      0.149 s.
  Wall clock time (cpu1) :      0.151 s.
------------------------------------------------------------

------------------------------------------------------------
          Begin self-consistency loop: Initialization.

          Date     :  20220205, Time     :  091830.616
------------------------------------------------------------

  Initializing index lists of integration centers etc. from given atomic structure:
  Mapping all atomic coordinates to central unit cell.

  Initializing the k-points
          Using symmetry for reducing the k-points
  | k-points reduced from:       36 to       20
  | Number of k-points                             :        20
  The eigenvectors in the calculations are COMPLEX.
  | K-points in task   0:         2
  | K-points in task   1:         3
  | K-points in task   2:         3
  | K-points in task   3:         3
  | K-points in task   4:         3
  | K-points in task   5:         2
  | K-points in task   6:         2
  | K-points in task   7:         2
  | Number of basis functions in the Hamiltonian integrals :      3472
  | Number of basis functions in a single unit cell        :        78
  | Number of centers in hartree potential         :       646
  | Number of centers in hartree multipole         :       548
  | Number of centers in electron density summation:       428
  | Number of centers in basis integrals           :       456
  | Number of centers in integrals                 :       136
  | Consuming         73 KiB for k_phase.
  | Number of super-cells :                 234
  | Size of matrix packed + index :      284874
  Perform CPU consistency test for lattice for partition grid
  Perform CPU consistency test for map_to_center_cell_matrix for partition grid
  Partitioning the integration grid into batches with parallel hashing+maxmin method.
  | Number of batches:      496
  | Maximal batch size:     108
  | Minimal batch size:      50
  | Average batch size:      72.895
  | Standard deviation of batch sizes:      20.938

  Integration load balanced across     8 MPI tasks.
  Work distribution over tasks is as follows:
  Task     0 has       4522 integration points.
  Task     1 has       4521 integration points.
  Task     2 has       4485 integration points.
  Task     3 has       4502 integration points.
  Task     4 has       4502 integration points.
  Task     5 has       4538 integration points.
  Task     6 has       4549 integration points.
  Task     7 has       4537 integration points.
  Initializing partition tables, free-atom densities, potentials, etc. across the integration grid (initialize_grid_storage).
  | initialize_grid_storage: Actual outermost partition radius vs. multipole_radius_free
  | (-- VB: in principle, multipole_radius_free should be larger, hence this output)
  | Species        1: outer_partition_radius =              6.000000000000000 AA, multipole_radius_free =              6.029870734432609 AA.
  | Original list of interatomic distances with         456 x        456 entries is created.
  | Net number of integration points:    36156
  | of which are non-zero points    :    26826
  | Numerical average free-atom electrostatic potential    :     -6.92761138 eV
  Obtaining max. number of non-zero basis functions in each batch (get_n_compute_maxes).
  | Maximal number of non-zero basis functions:     1323 in task     0
  | Maximal number of non-zero basis functions:     1222 in task     1
  | Maximal number of non-zero basis functions:     1309 in task     2
  | Maximal number of non-zero basis functions:     1309 in task     3
  | Maximal number of non-zero basis functions:     1309 in task     4
  | Maximal number of non-zero basis functions:     1309 in task     5
  | Maximal number of non-zero basis functions:     1318 in task     6
  | Maximal number of non-zero basis functions:     1309 in task     7
  Integrating Hamiltonian matrix: batch-based integration.
  Time summed over all CPUs for integration: real work       13.314 s, elapsed       13.546 s
  Integrating overlap matrix.
  Time summed over all CPUs for integration: real work        5.305 s, elapsed        5.420 s
  Decreasing sparse matrix size:
   Tolerance:  9.999999824516700E-014
   Hamiltonian matrix
  | Array has   179213 nonzero elements out of   284874 elements
  | Sparsity factor is 0.371
   Overlap matrix
  | Array has   161147 nonzero elements out of   284874 elements
  | Sparsity factor is 0.434
  New size of hamiltonian matrix:      180036

  Updating Kohn-Sham eigenvalues, eigenvectors, occupation numbers, and Fermi level.
  Solving generalized eigenproblem
  Transforming overlap matrix and checking for singularities.
  Overlap matrix is nonsingular at first k-point:
  | Lowest eigenvalue:  0.153553E-03
  Determining occupation numbers for Kohn-Sham eigenstates.
  | Chemical potential (Fermi level) in eV                 : -.82194107E+01
  | Error in electron count due to remaining E_F inaccuracy: 0.27906566E-10
  | Maximum occupation number of highest empty state:  0.00E+00

  Writing Kohn-Sham eigenvalues.

  Spin-up eigenvalues:
  K-point:       1 at    0.000000    0.000000    0.000000 (in units of recip. lattice)

  State    Occupation    Eigenvalue [Ha]    Eigenvalue [eV]
      1       1.00000         -10.166488         -276.64421
      2       1.00000         -10.165530         -276.61815
      3       1.00000          -1.047180          -28.49522
      4       1.00000          -0.571653          -15.55546
      5       1.00000          -0.468422          -12.74640
      6       1.00000          -0.468418          -12.74630
      7       0.00000          -0.029486           -0.80236
      8       0.00000          -0.029481           -0.80222
      9       0.00000          -0.001127           -0.03066
     10       0.00000           0.062689            1.70586
     11       0.00000           0.097037            2.64050

  Spin-down eigenvalues:
  K-point:       1 at    0.000000    0.000000    0.000000 (in units of recip. lattice)

  State    Occupation    Eigenvalue [Ha]    Eigenvalue [eV]
      1       1.00000         -10.166488         -276.64421
      2       1.00000         -10.165530         -276.61815
      3       1.00000          -1.047180          -28.49522
      4       1.00000          -0.571653          -15.55546
      5       1.00000          -0.468422          -12.74640
      6       1.00000          -0.468418          -12.74630
      7       0.00000          -0.029486           -0.80236
      8       0.00000          -0.029481           -0.80222
      9       0.00000          -0.001127           -0.03066
     10       0.00000           0.062689            1.70586
     11       0.00000           0.097037            2.64050

  Current spin moment of the entire structure :
  | N = N_up - N_down (sum over all k points):         0.00000
  | S (sum over all k points)                :         0.00000

  What follows are estimated values for band gap, HOMO, LUMO, etc.
  | They are estimated on a discrete k-point grid and not necessarily exact.
  | For converged numbers, create a DOS and/or band structure plot on a denser k-grid.

  Highest occupied state (VBM) at     -8.21943236 eV (relative to internal zero)
  | Occupation number:      0.51223770
  | K-point:      11 at    0.333333    0.333333    0.000000 (in units of recip. lattice)
  | Spin channel:        1

  Lowest unoccupied state (CBM) at    -8.21938897 eV (relative to internal zero)
  | Occupation number:      0.48776230
  | K-point:      11 at    0.333333    0.333333    0.000000 (in units of recip. lattice)
  | Spin channel:        1

  ESTIMATED overall HOMO-LUMO gap:      0.00004339 eV between HOMO at k-point 11 and LUMO at k-point 11
  | This appears to be a direct band gap.
  However, the gap value is rather small. Since we use a finite k-point grid,
  this material is most likely metallic (in the sense that there are states
  at or near the Fermi level). A DOS and/or band structure plot is required
  for an unambiguous distinction.
  Calculating total energy contributions from superposition of free atom densities.

  Total energy components:
  | Sum of eigenvalues            :         -45.99367227 Ha       -1251.55150068 eV
  | XC energy correction          :         -10.69818935 Ha        -291.11254393 eV
  | XC potential correction       :          13.74332519 Ha         373.97490602 eV
  | Free-atom electrostatic energy:         -33.32004492 Ha        -906.68455390 eV
  | Hartree energy correction     :           0.00000000 Ha           0.00000000 eV
  | van der Waals energy corr.    :           0.00000000 Ha           0.00000000 eV
  | Entropy correction            :          -0.00000115 Ha          -0.00003133 eV
  | ---------------------------
  | Total energy                  :         -76.26858135 Ha       -2075.37369249 eV
  | Total energy, T -> 0          :         -76.26858251 Ha       -2075.37372382 eV  <-- do not rely on this value for anything but (periodic) metals
  | Electronic free energy        :         -76.26858366 Ha       -2075.37375515 eV

  Derived energy quantities:
  | Kinetic energy                :          75.93797403 Ha        2066.37740953 eV
  | Electrostatic energy          :        -141.50836603 Ha       -3850.63855809 eV
  | Energy correction for multipole
  | error in Hartree potential    :           0.00000000 Ha           0.00000000 eV
  | Sum of eigenvalues per atom                           :        -625.77575034 eV
  | Total energy (T->0) per atom                          :       -1037.68686191 eV  <-- do not rely on this value for anything but (periodic) metals
  | Electronic free energy per atom                       :       -1037.68687757 eV
  Initialize hartree_potential_storage
  Max. number of atoms included in rho_multipole:            2

  End scf initialization - timings             :  max(cpu_time)    wall_clock(cpu1)
  | Time for scf. initialization               :        2.827 s           2.834 s
  | Boundary condition initialization          :        0.061 s           0.060 s
  | Integration                                :        2.384 s           2.389 s
  | Solution of K.-S. eqns.                    :        0.028 s           0.028 s
  | Grid partitioning                          :        0.045 s           0.045 s
  | Preloading free-atom quantities on grid    :        0.004 s           0.004 s
  | Free-atom superposition energy             :        0.029 s           0.030 s
  | Total energy evaluation                    :        0.000 s           0.000 s
------------------------------------------------------------

------------------------------------------------------------
          Begin self-consistency iteration #    1

  Date     :  20220205, Time     :  091833.450
------------------------------------------------------------
  Evaluating new KS density using the density matrix
  Evaluating density matrix
  Evaluating density matrix
  Time summed over all CPUs for getting density from density matrix: real work       23.911 s, elapsed       24.324 s
  Integration grid: deviation in total charge (<rho> - N_e) =  -3.570930E-07
  | <rho_up-rho_dn> = N_up-N_dn =      0.0000; <|rho_up-rho_dn|> =      0.0000
  Pulay mixing of updated and previous charge densities.

  Evaluating partitioned Hartree potential by multipole expansion.
  | Analytical far-field extrapolation by fixed multipoles:
  | Hartree multipole sum: apparent total charge =   0.382458E-03
  Summing up the Hartree potential.
  | Estimated reciprocal-space cutoff momentum G_max:         3.32253784 bohr^-1 .
  | Reciprocal lattice points for long-range Hartree potential:     150
  Time summed over all CPUs for potential: real work        1.868 s, elapsed        1.912 s
  | RMS charge density error from multipole expansion :   0.296073E-02
  | Average real-space part of the electrostatic potential :      0.10385897 eV

  Integrating Hamiltonian matrix: batch-based integration.
  Time summed over all CPUs for integration: real work       12.144 s, elapsed       12.371 s

  Updating Kohn-Sham eigenvalues, eigenvectors, occupation numbers, and Fermi level.
  Solving generalized eigenproblem
  Determining occupation numbers for Kohn-Sham eigenstates.
  | Chemical potential (Fermi level) in eV                 : -.68936648E+01
  | Error in electron count due to remaining E_F inaccuracy: -.75495166E-11
  | Maximum occupation number of highest empty state:  0.00E+00

  Writing Kohn-Sham eigenvalues.

  Spin-up eigenvalues:
  K-point:       1 at    0.000000    0.000000    0.000000 (in units of recip. lattice)

  State    Occupation    Eigenvalue [Ha]    Eigenvalue [eV]
      1       1.00000         -10.070244         -274.02527
      2       1.00000         -10.069280         -273.99906
      3       1.00000          -0.986702          -26.84952
      4       1.00000          -0.528828          -14.39015
      5       1.00000          -0.394416          -10.73261
      6       1.00000          -0.394403          -10.73225
      7       0.00000           0.007549            0.20542
      8       0.00000           0.036062            0.98130
      9       0.00000           0.036070            0.98153
     10       0.00000           0.064745            1.76181
     11       0.00000           0.157031            4.27302

  Spin-down eigenvalues:
  K-point:       1 at    0.000000    0.000000    0.000000 (in units of recip. lattice)

  State    Occupation    Eigenvalue [Ha]    Eigenvalue [eV]
      1       1.00000         -10.070244         -274.02527
      2       1.00000         -10.069280         -273.99906
      3       1.00000          -0.986702          -26.84952
      4       1.00000          -0.528828          -14.39015
      5       1.00000          -0.394416          -10.73261
      6       1.00000          -0.394403          -10.73225
      7       0.00000           0.007549            0.20542
      8       0.00000           0.036062            0.98130
      9       0.00000           0.036070            0.98153
     10       0.00000           0.064745            1.76181
     11       0.00000           0.157031            4.27302

  Current spin moment of the entire structure :
  | N = N_up - N_down (sum over all k points):         0.00000
  | S (sum over all k points)                :         0.00000

  What follows are estimated values for band gap, HOMO, LUMO, etc.
  | They are estimated on a discrete k-point grid and not necessarily exact.
  | For converged numbers, create a DOS and/or band structure plot on a denser k-grid.

  Highest occupied state (VBM) at     -6.89373741 eV (relative to internal zero)
  | Occupation number:      0.54091527
  | K-point:      11 at    0.333333    0.333333    0.000000 (in units of recip. lattice)
  | Spin channel:        1

  Lowest unoccupied state (CBM) at    -6.89359211 eV (relative to internal zero)
  | Occupation number:      0.45908473
  | K-point:      11 at    0.333333    0.333333    0.000000 (in units of recip. lattice)
  | Spin channel:        1

  ESTIMATED overall HOMO-LUMO gap:      0.00014530 eV between HOMO at k-point 11 and LUMO at k-point 11
  | This appears to be a direct band gap.
  However, the gap value is rather small. Since we use a finite k-point grid,
  this material is most likely metallic (in the sense that there are states
  at or near the Fermi level). A DOS and/or band structure plot is required
  for an unambiguous distinction.

  Total energy components:
  | Sum of eigenvalues            :         -45.11770844 Ha       -1227.71531222 eV
  | XC energy correction          :         -10.75703636 Ha        -292.71385243 eV
  | XC potential correction       :          13.81947528 Ha         376.04705533 eV
  | Free-atom electrostatic energy:         -33.32004492 Ha        -906.68455390 eV
  | Hartree energy correction     :          -0.86010968 Ha         -23.40477511 eV
  | van der Waals energy corr.    :           0.00000000 Ha           0.00000000 eV
  | Entropy correction            :          -0.00000115 Ha          -0.00003118 eV
  | ---------------------------
  | Total energy                  :         -76.23542412 Ha       -2074.47143834 eV
  | Total energy, T -> 0          :         -76.23542527 Ha       -2074.47146952 eV  <-- do not rely on this value for anything but (periodic) metals
  | Electronic free energy        :         -76.23542641 Ha       -2074.47150070 eV

  Derived energy quantities:
  | Kinetic energy                :          76.11299002 Ha        2071.13983697 eV
  | Electrostatic energy          :        -141.59137779 Ha       -3852.89742289 eV
  | Energy correction for multipole
  | error in Hartree potential    :          -0.00417177 Ha          -0.11351963 eV
  | Sum of eigenvalues per atom                           :        -613.85765611 eV
  | Total energy (T->0) per atom                          :       -1037.23573476 eV  <-- do not rely on this value for anything but (periodic) metals
  | Electronic free energy per atom                       :       -1037.23575035 eV

  Self-consistency convergence accuracy:
  | Change of charge/spin density : 0.2345E+00 0.3521E-18
  | Change of sum of eigenvalues  : 0.2384E+02 eV
  | Change of total energy        : 0.9023E+00 eV

  End self-consistency iteration #     1       :  max(cpu_time)    wall_clock(cpu1)
  | Time for this iteration                    :        5.030 s           5.042 s
  | Charge density update                      :        3.045 s           3.052 s
  | Density mixing & preconditioning           :        0.176 s           0.176 s
  | Hartree multipole update                   :        0.002 s           0.002 s
  | Hartree multipole summation                :        0.243 s           0.243 s
  | Integration                                :        1.549 s           1.553 s
  | Solution of K.-S. eqns.                    :        0.014 s           0.014 s
  | Total energy evaluation                    :        0.000 s           0.001 s
------------------------------------------------------------

------------------------------------------------------------
          Begin self-consistency iteration #    2

  Date     :  20220205, Time     :  091838.494
------------------------------------------------------------
  Evaluating new KS density using the density matrix
  Evaluating density matrix
  Evaluating density matrix
  Time summed over all CPUs for getting density from density matrix: real work       23.721 s, elapsed       24.179 s
  Integration grid: deviation in total charge (<rho> - N_e) =   3.824472E-04
  | <rho_up-rho_dn> = N_up-N_dn =     -0.0000; <|rho_up-rho_dn|> =      0.0000
  Pulay mixing of updated and previous charge densities.

  Evaluating partitioned Hartree potential by multipole expansion.
  | Analytical far-field extrapolation by fixed multipoles:
  | Hartree multipole sum: apparent total charge =   0.948684E-03
  Summing up the Hartree potential.
  Time summed over all CPUs for potential: real work        1.967 s, elapsed        2.018 s
  | RMS charge density error from multipole expansion :   0.712304E-02
  | Average real-space part of the electrostatic potential :      0.23481068 eV

  Integrating Hamiltonian matrix: batch-based integration.
  Time summed over all CPUs for integration: real work       12.242 s, elapsed       12.441 s

  Updating Kohn-Sham eigenvalues, eigenvectors, occupation numbers, and Fermi level.
  Solving generalized eigenproblem
  Determining occupation numbers for Kohn-Sham eigenstates.
  | Chemical potential (Fermi level) in eV                 : -.53788020E+01
  | Error in electron count due to remaining E_F inaccuracy: 0.12816148E-08
  | Maximum occupation number of highest empty state:  0.00E+00

  Current spin moment of the entire structure :
  | N = N_up - N_down (sum over all k points):         0.00000
  | S (sum over all k points)                :         0.00000

  What follows are estimated values for band gap, HOMO, LUMO, etc.
  | They are estimated on a discrete k-point grid and not necessarily exact.
  | For converged numbers, create a DOS and/or band structure plot on a denser k-grid.

  Highest occupied state (VBM) at     -5.37947531 eV (relative to internal zero)
  | Occupation number:      0.82950592
  | K-point:      11 at    0.333333    0.333333    0.000000 (in units of recip. lattice)
  | Spin channel:        1

  Lowest unoccupied state (CBM) at    -5.37812868 eV (relative to internal zero)
  | Occupation number:      0.17049409
  | K-point:      11 at    0.333333    0.333333    0.000000 (in units of recip. lattice)
  | Spin channel:        2

  ESTIMATED overall HOMO-LUMO gap:      0.00134663 eV between HOMO at k-point 11 and LUMO at k-point 11
  | This appears to be a direct band gap.
  However, the gap value is rather small. Since we use a finite k-point grid,
  this material is most likely metallic (in the sense that there are states
  at or near the Fermi level). A DOS and/or band structure plot is required
  for an unambiguous distinction.

  Total energy components:
  | Sum of eigenvalues            :         -44.12470374 Ha       -1200.69427935 eV
  | XC energy correction          :         -10.83041048 Ha        -294.71046383 eV
  | XC potential correction       :          13.91420185 Ha         378.62469654 eV
  | Free-atom electrostatic energy:         -33.32004492 Ha        -906.68455390 eV
  | Hartree energy correction     :          -1.86218617 Ha         -50.67266390 eV
  | van der Waals energy corr.    :           0.00000000 Ha           0.00000000 eV
  | Entropy correction            :          -0.00000073 Ha          -0.00001992 eV
  | ---------------------------
  | Total energy                  :         -76.22314346 Ha       -2074.13726444 eV
  | Total energy, T -> 0          :         -76.22314419 Ha       -2074.13728436 eV  <-- do not rely on this value for anything but (periodic) metals
  | Electronic free energy        :         -76.22314492 Ha       -2074.13730428 eV

  Derived energy quantities:
  | Kinetic energy                :          76.15767143 Ha        2072.35567989 eV
  | Electrostatic energy          :        -141.55040441 Ha       -3851.78248050 eV
  | Energy correction for multipole
  | error in Hartree potential    :          -0.01000783 Ha          -0.27232703 eV
  | Sum of eigenvalues per atom                           :        -600.34713968 eV
  | Total energy (T->0) per atom                          :       -1037.06864218 eV  <-- do not rely on this value for anything but (periodic) metals
  | Electronic free energy per atom                       :       -1037.06865214 eV

  Self-consistency convergence accuracy:
  | Change of charge/spin density : 0.1300E+00 0.2553E-13
  | Change of sum of eigenvalues  : 0.2702E+02 eV
  | Change of total energy        : 0.3342E+00 eV

  End self-consistency iteration #     2       :  max(cpu_time)    wall_clock(cpu1)
  | Time for this iteration                    :        5.008 s           5.019 s
  | Charge density update                      :        3.024 s           3.031 s
  | Density mixing & preconditioning           :        0.155 s           0.155 s
  | Hartree multipole update                   :        0.001 s           0.002 s
  | Hartree multipole summation                :        0.256 s           0.256 s
  | Integration                                :        1.557 s           1.560 s
  | Solution of K.-S. eqns.                    :        0.014 s           0.014 s
  | Total energy evaluation                    :        0.000 s           0.000 s
------------------------------------------------------------

------------------------------------------------------------
          Begin self-consistency iteration #    3

  Date     :  20220205, Time     :  091843.519
------------------------------------------------------------
  Evaluating new KS density using the density matrix
  Evaluating density matrix
  Evaluating density matrix
  Time summed over all CPUs for getting density from density matrix: real work       23.645 s, elapsed       24.078 s
  Integration grid: deviation in total charge (<rho> - N_e) =   9.491669E-04
  | <rho_up-rho_dn> = N_up-N_dn =     -0.0000; <|rho_up-rho_dn|> =      0.0000
  Pulay mixing of updated and previous charge densities.

  Evaluating partitioned Hartree potential by multipole expansion.
  | Analytical far-field extrapolation by fixed multipoles:
  | Hartree multipole sum: apparent total charge =   0.642430E-03
  Summing up the Hartree potential.
  Time summed over all CPUs for potential: real work        1.962 s, elapsed        2.011 s
  | RMS charge density error from multipole expansion :   0.788605E-02
  | Average real-space part of the electrostatic potential :      0.24042652 eV

  Integrating Hamiltonian matrix: batch-based integration.
  Time summed over all CPUs for integration: real work       12.264 s, elapsed       12.483 s

  Updating Kohn-Sham eigenvalues, eigenvectors, occupation numbers, and Fermi level.
  Solving generalized eigenproblem
  Determining occupation numbers for Kohn-Sham eigenstates.
  | Chemical potential (Fermi level) in eV                 : -.54889438E+01
  | Error in electron count due to remaining E_F inaccuracy: -.41282533E-11
  | Maximum occupation number of highest empty state:  0.00E+00

  Current spin moment of the entire structure :
  | N = N_up - N_down (sum over all k points):         0.00000
  | S (sum over all k points)                :         0.00000

  What follows are estimated values for band gap, HOMO, LUMO, etc.
  | They are estimated on a discrete k-point grid and not necessarily exact.
  | For converged numbers, create a DOS and/or band structure plot on a denser k-grid.

  Highest occupied state (VBM) at     -5.49354855 eV (relative to internal zero)
  | Occupation number:      1.00000000
  | K-point:      11 at    0.333333    0.333333    0.000000 (in units of recip. lattice)
  | Spin channel:        1

  Lowest unoccupied state (CBM) at    -5.48357748 eV (relative to internal zero)
  | Occupation number:      0.00000000
  | K-point:      11 at    0.333333    0.333333    0.000000 (in units of recip. lattice)
  | Spin channel:        2

  ESTIMATED overall HOMO-LUMO gap:      0.00997107 eV between HOMO at k-point 11 and LUMO at k-point 11
  | This appears to be a direct band gap.
  However, the gap value is rather small. Since we use a finite k-point grid,
  this material is most likely metallic (in the sense that there are states
  at or near the Fermi level). A DOS and/or band structure plot is required
  for an unambiguous distinction.

  Total energy components:
  | Sum of eigenvalues            :         -44.22705113 Ha       -1203.47929347 eV
  | XC energy correction          :         -10.81810145 Ha        -294.37551817 eV
  | XC potential correction       :          13.89887664 Ha         378.20767635 eV
  | Free-atom electrostatic energy:         -33.32004492 Ha        -906.68455390 eV
  | Hartree energy correction     :          -1.75686410 Ha         -47.80670449 eV
  | van der Waals energy corr.    :           0.00000000 Ha           0.00000000 eV
  | Entropy correction            :          -0.00000000 Ha          -0.00000000 eV
  | ---------------------------
  | Total energy                  :         -76.22318496 Ha       -2074.13839368 eV
  | Total energy, T -> 0          :         -76.22318496 Ha       -2074.13839368 eV  <-- do not rely on this value for anything but (periodic) metals
  | Electronic free energy        :         -76.22318496 Ha       -2074.13839368 eV

  Derived energy quantities:
  | Kinetic energy                :          76.00624904 Ha        2068.23526704 eV
  | Electrostatic energy          :        -141.41133255 Ha       -3847.99814255 eV
  | Energy correction for multipole
  | error in Hartree potential    :          -0.01101666 Ha          -0.29977862 eV
  | Sum of eigenvalues per atom                           :        -601.73964673 eV
  | Total energy (T->0) per atom                          :       -1037.06919684 eV  <-- do not rely on this value for anything but (periodic) metals
  | Electronic free energy per atom                       :       -1037.06919684 eV

  Self-consistency convergence accuracy:
  | Change of charge/spin density : 0.1720E-01 0.2809E-11
  | Change of sum of eigenvalues  : -.2785E+01 eV
  | Change of total energy        : -.1129E-02 eV

  End self-consistency iteration #     3       :  max(cpu_time)    wall_clock(cpu1)
  | Time for this iteration                    :        4.999 s           5.010 s
  | Charge density update                      :        3.011 s           3.017 s
  | Density mixing & preconditioning           :        0.156 s           0.157 s
  | Hartree multipole update                   :        0.001 s           0.001 s
  | Hartree multipole summation                :        0.255 s           0.256 s
  | Integration                                :        1.561 s           1.564 s
  | Solution of K.-S. eqns.                    :        0.014 s           0.014 s
  | Total energy evaluation                    :        0.000 s           0.000 s
------------------------------------------------------------

------------------------------------------------------------
          Begin self-consistency iteration #    4

  Date     :  20220205, Time     :  091848.531
------------------------------------------------------------
  Evaluating new KS density using the density matrix
  Evaluating density matrix
  Evaluating density matrix
  Time summed over all CPUs for getting density from density matrix: real work       23.807 s, elapsed       24.264 s
  Integration grid: deviation in total charge (<rho> - N_e) =   6.429633E-04
  | <rho_up-rho_dn> = N_up-N_dn =      0.0000; <|rho_up-rho_dn|> =      0.0000
  Pulay mixing of updated and previous charge densities.

  Evaluating partitioned Hartree potential by multipole expansion.
  | Analytical far-field extrapolation by fixed multipoles:
  | Hartree multipole sum: apparent total charge =   0.488464E-03
  Summing up the Hartree potential.
  Time summed over all CPUs for potential: real work        1.964 s, elapsed        2.014 s
  | RMS charge density error from multipole expansion :   0.802934E-02
  | Average real-space part of the electrostatic potential :      0.24317356 eV

  Integrating Hamiltonian matrix: batch-based integration.
  Time summed over all CPUs for integration: real work       12.333 s, elapsed       12.536 s

  Updating Kohn-Sham eigenvalues, eigenvectors, occupation numbers, and Fermi level.
  Solving generalized eigenproblem
  Determining occupation numbers for Kohn-Sham eigenstates.
  | Chemical potential (Fermi level) in eV                 : -.54901391E+01
  | Error in electron count due to remaining E_F inaccuracy: -.12589574E-09
  | Maximum occupation number of highest empty state:  0.00E+00

  Current spin moment of the entire structure :
  | N = N_up - N_down (sum over all k points):         0.00000
  | S (sum over all k points)                :         0.00000

  What follows are estimated values for band gap, HOMO, LUMO, etc.
  | They are estimated on a discrete k-point grid and not necessarily exact.
  | For converged numbers, create a DOS and/or band structure plot on a denser k-grid.

  Highest occupied state (VBM) at     -5.49194085 eV (relative to internal zero)
  | Occupation number:      0.99458375
  | K-point:      11 at    0.333333    0.333333    0.000000 (in units of recip. lattice)
  | Spin channel:        1

  Lowest unoccupied state (CBM) at    -5.48833735 eV (relative to internal zero)
  | Occupation number:      0.00541625
  | K-point:      11 at    0.333333    0.333333    0.000000 (in units of recip. lattice)
  | Spin channel:        2

  ESTIMATED overall HOMO-LUMO gap:      0.00360350 eV between HOMO at k-point 11 and LUMO at k-point 11
  | This appears to be a direct band gap.
  However, the gap value is rather small. Since we use a finite k-point grid,
  this material is most likely metallic (in the sense that there are states
  at or near the Fermi level). A DOS and/or band structure plot is required
  for an unambiguous distinction.

  Total energy components:
  | Sum of eigenvalues            :         -44.23279929 Ha       -1203.63570896 eV
  | XC energy correction          :         -10.81715771 Ha        -294.34983755 eV
  | XC potential correction       :          13.89772118 Ha         378.17623460 eV
  | Free-atom electrostatic energy:         -33.32004492 Ha        -906.68455390 eV
  | Hartree energy correction     :          -1.75088996 Ha         -47.64413992 eV
  | van der Waals energy corr.    :           0.00000000 Ha           0.00000000 eV
  | Entropy correction            :          -0.00000004 Ha          -0.00000122 eV
  | ---------------------------
  | Total energy                  :         -76.22317070 Ha       -2074.13800574 eV
  | Total energy, T -> 0          :         -76.22317075 Ha       -2074.13800696 eV  <-- do not rely on this value for anything but (periodic) metals
  | Electronic free energy        :         -76.22317079 Ha       -2074.13800818 eV

  Derived energy quantities:
  | Kinetic energy                :          75.98697102 Ha        2067.71068553 eV
  | Electrostatic energy          :        -141.39298402 Ha       -3847.49885372 eV
  | Energy correction for multipole
  | error in Hartree potential    :          -0.01121650 Ha          -0.30521638 eV
  | Sum of eigenvalues per atom                           :        -601.81785448 eV
  | Total energy (T->0) per atom                          :       -1037.06900348 eV  <-- do not rely on this value for anything but (periodic) metals
  | Electronic free energy per atom                       :       -1037.06900409 eV

  Self-consistency convergence accuracy:
  | Change of charge/spin density : 0.8580E-02 0.4411E-10
  | Change of sum of eigenvalues  : -.1564E+00 eV
  | Change of total energy        : 0.3879E-03 eV

  End self-consistency iteration #     4       :  max(cpu_time)    wall_clock(cpu1)
  | Time for this iteration                    :        5.032 s           5.043 s
  | Charge density update                      :        3.034 s           3.041 s
  | Density mixing & preconditioning           :        0.157 s           0.157 s
  | Hartree multipole update                   :        0.001 s           0.002 s
  | Hartree multipole summation                :        0.255 s           0.255 s
  | Integration                                :        1.569 s           1.573 s
  | Solution of K.-S. eqns.                    :        0.014 s           0.014 s
  | Total energy evaluation                    :        0.000 s           0.001 s
------------------------------------------------------------

------------------------------------------------------------
          Begin self-consistency iteration #    5

  Date     :  20220205, Time     :  091853.579
------------------------------------------------------------
  Evaluating new KS density using the density matrix
  Evaluating density matrix
  Evaluating density matrix
  Time summed over all CPUs for getting density from density matrix: real work       23.676 s, elapsed       24.112 s
  Integration grid: deviation in total charge (<rho> - N_e) =   4.890073E-04
  | <rho_up-rho_dn> = N_up-N_dn =     -0.0000; <|rho_up-rho_dn|> =      0.0000
  Pulay mixing of updated and previous charge densities.

  Evaluating partitioned Hartree potential by multipole expansion.
  | Analytical far-field extrapolation by fixed multipoles:
  | Hartree multipole sum: apparent total charge =   0.302643E-03
  Summing up the Hartree potential.
  Time summed over all CPUs for potential: real work        1.961 s, elapsed        2.011 s
  | RMS charge density error from multipole expansion :   0.806230E-02
  | Average real-space part of the electrostatic potential :      0.24500433 eV

  Integrating Hamiltonian matrix: batch-based integration.
  Time summed over all CPUs for integration: real work       12.191 s, elapsed       12.376 s

  Updating Kohn-Sham eigenvalues, eigenvectors, occupation numbers, and Fermi level.
  Solving generalized eigenproblem
  Determining occupation numbers for Kohn-Sham eigenstates.
  | Chemical potential (Fermi level) in eV                 : -.54769107E+01
  | Error in electron count due to remaining E_F inaccuracy: 0.18422952E-09
  | Maximum occupation number of highest empty state:  0.00E+00

  Current spin moment of the entire structure :
  | N = N_up - N_down (sum over all k points):         0.00000
  | S (sum over all k points)                :         0.00000

  What follows are estimated values for band gap, HOMO, LUMO, etc.
  | They are estimated on a discrete k-point grid and not necessarily exact.
  | For converged numbers, create a DOS and/or band structure plot on a denser k-grid.

  Highest occupied state (VBM) at     -5.47876609 eV (relative to internal zero)
  | Occupation number:      0.99565370
  | K-point:      11 at    0.333333    0.333333    0.000000 (in units of recip. lattice)
  | Spin channel:        1

  Lowest unoccupied state (CBM) at    -5.47505532 eV (relative to internal zero)
  | Occupation number:      0.00434630
  | K-point:      11 at    0.333333    0.333333    0.000000 (in units of recip. lattice)
  | Spin channel:        2

  ESTIMATED overall HOMO-LUMO gap:      0.00371077 eV between HOMO at k-point 11 and LUMO at k-point 11
  | This appears to be a direct band gap.
  However, the gap value is rather small. Since we use a finite k-point grid,
  this material is most likely metallic (in the sense that there are states
  at or near the Fermi level). A DOS and/or band structure plot is required
  for an unambiguous distinction.

  Total energy components:
  | Sum of eigenvalues            :         -44.22486776 Ha       -1203.41988115 eV
  | XC energy correction          :         -10.81793182 Ha        -294.37090217 eV
  | XC potential correction       :          13.89870001 Ha         378.20287001 eV
  | Free-atom electrostatic energy:         -33.32004492 Ha        -906.68455390 eV
  | Hartree energy correction     :          -1.75902514 Ha         -47.86550937 eV
  | van der Waals energy corr.    :           0.00000000 Ha           0.00000000 eV
  | Entropy correction            :          -0.00000004 Ha          -0.00000100 eV
  | ---------------------------
  | Total energy                  :         -76.22316963 Ha       -2074.13797658 eV
  | Total energy, T -> 0          :         -76.22316967 Ha       -2074.13797758 eV  <-- do not rely on this value for anything but (periodic) metals
  | Electronic free energy        :         -76.22316970 Ha       -2074.13797858 eV

  Derived energy quantities:
  | Kinetic energy                :          75.99006671 Ha        2067.79492338 eV
  | Electrostatic energy          :        -141.39530452 Ha       -3847.56199779 eV
  | Energy correction for multipole
  | error in Hartree potential    :          -0.01127433 Ha          -0.30679017 eV
  | Sum of eigenvalues per atom                           :        -601.70994057 eV
  | Total energy (T->0) per atom                          :       -1037.06898879 eV  <-- do not rely on this value for anything but (periodic) metals
  | Electronic free energy per atom                       :       -1037.06898929 eV

  Self-consistency convergence accuracy:
  | Change of charge/spin density : 0.6330E-02 0.8060E-09
  | Change of sum of eigenvalues  : 0.2158E+00 eV
  | Change of total energy        : 0.2916E-04 eV

  End self-consistency iteration #     5       :  max(cpu_time)    wall_clock(cpu1)
  | Time for this iteration                    :        4.986 s           4.997 s
  | Charge density update                      :        3.017 s           3.022 s
  | Density mixing & preconditioning           :        0.151 s           0.152 s
  | Hartree multipole update                   :        0.001 s           0.002 s
  | Hartree multipole summation                :        0.255 s           0.255 s
  | Integration                                :        1.547 s           1.551 s
  | Solution of K.-S. eqns.                    :        0.014 s           0.014 s
  | Total energy evaluation                    :        0.000 s           0.001 s
------------------------------------------------------------

------------------------------------------------------------
          Begin self-consistency iteration #    6

  Date     :  20220205, Time     :  091858.578
------------------------------------------------------------
  Evaluating new KS density using the density matrix
  Evaluating density matrix
  Evaluating density matrix
  Time summed over all CPUs for getting density from density matrix: real work       23.474 s, elapsed       23.925 s
  Integration grid: deviation in total charge (<rho> - N_e) =   3.031873E-04
  | <rho_up-rho_dn> = N_up-N_dn =     -0.0000; <|rho_up-rho_dn|> =      0.0000
  Pulay mixing of updated and previous charge densities.

  Evaluating partitioned Hartree potential by multipole expansion.
  | Analytical far-field extrapolation by fixed multipoles:
  | Hartree multipole sum: apparent total charge =   0.441160E-03
  Summing up the Hartree potential.
  Time summed over all CPUs for potential: real work        1.960 s, elapsed        2.010 s
  | RMS charge density error from multipole expansion :   0.806975E-02
  | Average real-space part of the electrostatic potential :      0.24452921 eV

  Integrating Hamiltonian matrix: batch-based integration.
  Time summed over all CPUs for integration: real work       12.119 s, elapsed       12.377 s

  Updating Kohn-Sham eigenvalues, eigenvectors, occupation numbers, and Fermi level.
  Solving generalized eigenproblem
  Determining occupation numbers for Kohn-Sham eigenstates.
  | Chemical potential (Fermi level) in eV                 : -.54738129E+01
  | Error in electron count due to remaining E_F inaccuracy: -.86560092E-09
  | Maximum occupation number of highest empty state:  0.00E+00

  Current spin moment of the entire structure :
  | N = N_up - N_down (sum over all k points):         0.00000
  | S (sum over all k points)                :         0.00000

  What follows are estimated values for band gap, HOMO, LUMO, etc.
  | They are estimated on a discrete k-point grid and not necessarily exact.
  | For converged numbers, create a DOS and/or band structure plot on a denser k-grid.

  Highest occupied state (VBM) at     -5.47469244 eV (relative to internal zero)
  | Occupation number:      0.89322944
  | K-point:      11 at    0.333333    0.333333    0.000000 (in units of recip. lattice)
  | Spin channel:        1

  Lowest unoccupied state (CBM) at    -5.47293332 eV (relative to internal zero)
  | Occupation number:      0.10677053
  | K-point:      11 at    0.333333    0.333333    0.000000 (in units of recip. lattice)
  | Spin channel:        1

  ESTIMATED overall HOMO-LUMO gap:      0.00175912 eV between HOMO at k-point 11 and LUMO at k-point 11
  | This appears to be a direct band gap.
  However, the gap value is rather small. Since we use a finite k-point grid,
  this material is most likely metallic (in the sense that there are states
  at or near the Fermi level). A DOS and/or band structure plot is required
  for an unambiguous distinction.

  Total energy components:
  | Sum of eigenvalues            :         -44.22279704 Ha       -1203.36353392 eV
  | XC energy correction          :         -10.81810567 Ha        -294.37563286 eV
  | XC potential correction       :          13.89891765 Ha         378.20879237 eV
  | Free-atom electrostatic energy:         -33.32004492 Ha        -906.68455390 eV
  | Hartree energy correction     :          -1.76113387 Ha         -47.92289083 eV
  | van der Waals energy corr.    :           0.00000000 Ha           0.00000000 eV
  | Entropy correction            :          -0.00000053 Ha          -0.00001446 eV
  | ---------------------------
  | Total energy                  :         -76.22316384 Ha       -2074.13781914 eV
  | Total energy, T -> 0          :         -76.22316437 Ha       -2074.13783360 eV  <-- do not rely on this value for anything but (periodic) metals
  | Electronic free energy        :         -76.22316491 Ha       -2074.13784806 eV

  Derived energy quantities:
  | Kinetic energy                :          75.99096610 Ha        2067.81939702 eV
  | Electrostatic energy          :        -141.39602427 Ha       -3847.58158330 eV
  | Energy correction for multipole
  | error in Hartree potential    :          -0.01128860 Ha          -0.30717841 eV
  | Sum of eigenvalues per atom                           :        -601.68176696 eV
  | Total energy (T->0) per atom                          :       -1037.06891680 eV  <-- do not rely on this value for anything but (periodic) metals
  | Electronic free energy per atom                       :       -1037.06892403 eV

  Self-consistency convergence accuracy:
  | Change of charge/spin density : 0.6062E-02 0.3339E-07
  | Change of sum of eigenvalues  : 0.5635E-01 eV
  | Change of total energy        : 0.1574E-03 eV

  End self-consistency iteration #     6       :  max(cpu_time)    wall_clock(cpu1)
  | Time for this iteration                    :        4.961 s           4.972 s
  | Charge density update                      :        2.992 s           2.998 s
  | Density mixing & preconditioning           :        0.151 s           0.151 s
  | Hartree multipole update                   :        0.001 s           0.002 s
  | Hartree multipole summation                :        0.254 s           0.255 s
  | Integration                                :        1.548 s           1.551 s
  | Solution of K.-S. eqns.                    :        0.013 s           0.014 s
  | Total energy evaluation                    :        0.000 s           0.001 s
------------------------------------------------------------

------------------------------------------------------------
          Begin self-consistency iteration #    7

  Date     :  20220205, Time     :  091903.551
------------------------------------------------------------
  Evaluating new KS density using the density matrix
  Evaluating density matrix
  Evaluating density matrix
  Time summed over all CPUs for getting density from density matrix: real work       23.425 s, elapsed       23.856 s
  Integration grid: deviation in total charge (<rho> - N_e) =   4.417030E-04
  | <rho_up-rho_dn> = N_up-N_dn =     -0.0000; <|rho_up-rho_dn|> =      0.0000
  Pulay mixing of updated and previous charge densities.

  Evaluating partitioned Hartree potential by multipole expansion.
  | Analytical far-field extrapolation by fixed multipoles:
  | Hartree multipole sum: apparent total charge =   0.479763E-03
  Summing up the Hartree potential.
  Time summed over all CPUs for potential: real work        1.966 s, elapsed        2.016 s
  | RMS charge density error from multipole expansion :   0.807536E-02
  | Average real-space part of the electrostatic potential :      0.24436737 eV

  Integrating Hamiltonian matrix: batch-based integration.
  Time summed over all CPUs for integration: real work       12.187 s, elapsed       12.382 s

  Updating Kohn-Sham eigenvalues, eigenvectors, occupation numbers, and Fermi level.
  Solving generalized eigenproblem
  Determining occupation numbers for Kohn-Sham eigenstates.
  | Chemical potential (Fermi level) in eV                 : -.54725798E+01
  | Error in electron count due to remaining E_F inaccuracy: 0.12489565E-10
  | Maximum occupation number of highest empty state:  0.00E+00

  Current spin moment of the entire structure :
  | N = N_up - N_down (sum over all k points):         0.00000
  | S (sum over all k points)                :         0.00000

  What follows are estimated values for band gap, HOMO, LUMO, etc.
  | They are estimated on a discrete k-point grid and not necessarily exact.
  | For converged numbers, create a DOS and/or band structure plot on a denser k-grid.

  Highest occupied state (VBM) at     -5.47368949 eV (relative to internal zero)
  | Occupation number:      0.94170995
  | K-point:      11 at    0.333333    0.333333    0.000000 (in units of recip. lattice)
  | Spin channel:        2

  Lowest unoccupied state (CBM) at    -5.47147018 eV (relative to internal zero)
  | Occupation number:      0.05829033
  | K-point:      11 at    0.333333    0.333333    0.000000 (in units of recip. lattice)
  | Spin channel:        2

  ESTIMATED overall HOMO-LUMO gap:      0.00221931 eV between HOMO at k-point 11 and LUMO at k-point 11
  | This appears to be a direct band gap.
  However, the gap value is rather small. Since we use a finite k-point grid,
  this material is most likely metallic (in the sense that there are states
  at or near the Fermi level). A DOS and/or band structure plot is required
  for an unambiguous distinction.

  Total energy components:
  | Sum of eigenvalues            :         -44.22212653 Ha       -1203.34528835 eV
  | XC energy correction          :         -10.81816834 Ha        -294.37733842 eV
  | XC potential correction       :          13.89899505 Ha         378.21089845 eV
  | Free-atom electrostatic energy:         -33.32004492 Ha        -906.68455390 eV
  | Hartree energy correction     :          -1.76182062 Ha         -47.94157826 eV
  | van der Waals energy corr.    :           0.00000000 Ha           0.00000000 eV
  | Entropy correction            :          -0.00000034 Ha          -0.00000913 eV
  | ---------------------------
  | Total energy                  :         -76.22316536 Ha       -2074.13786049 eV
  | Total energy, T -> 0          :         -76.22316570 Ha       -2074.13786962 eV  <-- do not rely on this value for anything but (periodic) metals
  | Electronic free energy        :         -76.22316603 Ha       -2074.13787875 eV

  Derived energy quantities:
  | Kinetic energy                :          75.99124239 Ha        2067.82691544 eV
  | Electrostatic energy          :        -141.39623941 Ha       -3847.58743751 eV
  | Energy correction for multipole
  | error in Hartree potential    :          -0.01129918 Ha          -0.30746622 eV
  | Sum of eigenvalues per atom                           :        -601.67264418 eV
  | Total energy (T->0) per atom                          :       -1037.06893481 eV  <-- do not rely on this value for anything but (periodic) metals
  | Electronic free energy per atom                       :       -1037.06893938 eV

  Self-consistency convergence accuracy:
  | Change of charge/spin density : 0.4438E-02 0.4577E-06
  | Change of sum of eigenvalues  : 0.1825E-01 eV
  | Change of total energy        : -.4135E-04 eV

  End self-consistency iteration #     7       :  max(cpu_time)    wall_clock(cpu1)
  | Time for this iteration                    :        4.958 s           4.969 s
  | Charge density update                      :        2.984 s           2.990 s
  | Density mixing & preconditioning           :        0.153 s           0.154 s
  | Hartree multipole update                   :        0.001 s           0.001 s
  | Hartree multipole summation                :        0.255 s           0.256 s
  | Integration                                :        1.549 s           1.553 s
  | Solution of K.-S. eqns.                    :        0.014 s           0.014 s
  | Total energy evaluation                    :        0.000 s           0.000 s
------------------------------------------------------------

------------------------------------------------------------
          Begin self-consistency iteration #    8

  Date     :  20220205, Time     :  091908.522
------------------------------------------------------------
  Evaluating new KS density using the density matrix
  Evaluating density matrix
  Evaluating density matrix
  Time summed over all CPUs for getting density from density matrix: real work       23.759 s, elapsed       24.210 s
  Integration grid: deviation in total charge (<rho> - N_e) =   4.803080E-04
  | <rho_up-rho_dn> = N_up-N_dn =     -0.0000; <|rho_up-rho_dn|> =      0.0001
  Pulay mixing of updated and previous charge densities.

  Evaluating partitioned Hartree potential by multipole expansion.
  | Analytical far-field extrapolation by fixed multipoles:
  | Hartree multipole sum: apparent total charge =   0.672643E-03
  Summing up the Hartree potential.
  Time summed over all CPUs for potential: real work        1.966 s, elapsed        2.015 s
  | RMS charge density error from multipole expansion :   0.810963E-02
  | Average real-space part of the electrostatic potential :      0.24349904 eV

  Integrating Hamiltonian matrix: batch-based integration.
  Time summed over all CPUs for integration: real work       12.460 s, elapsed       12.667 s

  Updating Kohn-Sham eigenvalues, eigenvectors, occupation numbers, and Fermi level.
  Solving generalized eigenproblem
  Determining occupation numbers for Kohn-Sham eigenstates.
  | Chemical potential (Fermi level) in eV                 : -.54649930E+01
  | Error in electron count due to remaining E_F inaccuracy: 0.53982294E-08
  | Maximum occupation number of highest empty state:  0.00E+00

  Current spin moment of the entire structure :
  | N = N_up - N_down (sum over all k points):         0.00000
  | S (sum over all k points)                :         0.00000

  What follows are estimated values for band gap, HOMO, LUMO, etc.
  | They are estimated on a discrete k-point grid and not necessarily exact.
  | For converged numbers, create a DOS and/or band structure plot on a denser k-grid.

  Highest occupied state (VBM) at     -5.46589276 eV (relative to internal zero)
  | Occupation number:      0.89839438
  | K-point:      11 at    0.333333    0.333333    0.000000 (in units of recip. lattice)
  | Spin channel:        2

  Lowest unoccupied state (CBM) at    -5.46409326 eV (relative to internal zero)
  | Occupation number:      0.10161007
  | K-point:      11 at    0.333333    0.333333    0.000000 (in units of recip. lattice)
  | Spin channel:        2

  ESTIMATED overall HOMO-LUMO gap:      0.00179951 eV between HOMO at k-point 11 and LUMO at k-point 11
  | This appears to be a direct band gap.
  However, the gap value is rather small. Since we use a finite k-point grid,
  this material is most likely metallic (in the sense that there are states
  at or near the Fermi level). A DOS and/or band structure plot is required
  for an unambiguous distinction.

  Total energy components:
  | Sum of eigenvalues            :         -44.21810281 Ha       -1203.23579738 eV
  | XC energy correction          :         -10.81855198 Ha        -294.38777775 eV
  | XC potential correction       :          13.89946899 Ha         378.22379504 eV
  | Free-atom electrostatic energy:         -33.32004492 Ha        -906.68455390 eV
  | Hartree energy correction     :          -1.76593448 Ha         -48.05352204 eV
  | van der Waals energy corr.    :           0.00000000 Ha           0.00000000 eV
  | Entropy correction            :          -0.00000051 Ha          -0.00001394 eV
  | ---------------------------
  | Total energy                  :         -76.22316520 Ha       -2074.13785602 eV
  | Total energy, T -> 0          :         -76.22316571 Ha       -2074.13786997 eV  <-- do not rely on this value for anything but (periodic) metals
  | Electronic free energy        :         -76.22316622 Ha       -2074.13788391 eV

  Derived energy quantities:
  | Kinetic energy                :          75.99289132 Ha        2067.87178508 eV
  | Electrostatic energy          :        -141.39750454 Ha       -3847.62186336 eV
  | Energy correction for multipole
  | error in Hartree potential    :          -0.01136268 Ha          -0.30919438 eV
  | Sum of eigenvalues per atom                           :        -601.61789869 eV
  | Total energy (T->0) per atom                          :       -1037.06893498 eV  <-- do not rely on this value for anything but (periodic) metals
  | Electronic free energy per atom                       :       -1037.06894195 eV

  Self-consistency convergence accuracy:
  | Change of charge/spin density : 0.1276E-01 0.7298E-05
  | Change of sum of eigenvalues  : 0.1095E+00 eV
  | Change of total energy        : 0.4463E-05 eV

  End self-consistency iteration #     8       :  max(cpu_time)    wall_clock(cpu1)
  | Time for this iteration                    :        5.051 s           5.062 s
  | Charge density update                      :        3.027 s           3.034 s
  | Density mixing & preconditioning           :        0.168 s           0.168 s
  | Hartree multipole update                   :        0.001 s           0.002 s
  | Hartree multipole summation                :        0.255 s           0.256 s
  | Integration                                :        1.584 s           1.587 s
  | Solution of K.-S. eqns.                    :        0.014 s           0.014 s
  | Total energy evaluation                    :        0.000 s           0.000 s
------------------------------------------------------------

------------------------------------------------------------
          Begin self-consistency iteration #    9

  Date     :  20220205, Time     :  091913.588
------------------------------------------------------------
  Evaluating new KS density using the density matrix
  Evaluating density matrix
  Evaluating density matrix
  Time summed over all CPUs for getting density from density matrix: real work       23.851 s, elapsed       24.313 s
  Integration grid: deviation in total charge (<rho> - N_e) =   6.731988E-04
  | <rho_up-rho_dn> = N_up-N_dn =     -0.0000; <|rho_up-rho_dn|> =      0.0016
  Pulay mixing of updated and previous charge densities.

  Evaluating partitioned Hartree potential by multipole expansion.
  | Analytical far-field extrapolation by fixed multipoles:
  | Hartree multipole sum: apparent total charge =   0.656506E-03
  Summing up the Hartree potential.
  Time summed over all CPUs for potential: real work        1.969 s, elapsed        2.019 s
  | RMS charge density error from multipole expansion :   0.810967E-02
  | Average real-space part of the electrostatic potential :      0.24355546 eV

  Integrating Hamiltonian matrix: batch-based integration.
[...]
  | This appears to be a direct band gap.
  However, the gap value is rather small. Since we use a finite k-point grid,
  this material is most likely metallic (in the sense that there are states
  at or near the Fermi level). A DOS and/or band structure plot is required
  for an unambiguous distinction.

  Total energy components:
  | Sum of eigenvalues            :         -44.21673895 Ha       -1203.19868482 eV
  | XC energy correction          :         -10.81877617 Ha        -294.39387808 eV
  | XC potential correction       :          13.89976404 Ha         378.23182374 eV
  | Free-atom electrostatic energy:         -33.32004492 Ha        -906.68455390 eV
  | Hartree energy correction     :          -1.76736963 Ha         -48.09257457 eV
  | van der Waals energy corr.    :           0.00000000 Ha           0.00000000 eV
  | Entropy correction            :          -0.00000052 Ha          -0.00001417 eV
  | ---------------------------
  | Total energy                  :         -76.22316562 Ha       -2074.13786762 eV
  | Total energy, T -> 0          :         -76.22316615 Ha       -2074.13788179 eV  <-- do not rely on this value for anything but (periodic) metals
  | Electronic free energy        :         -76.22316667 Ha       -2074.13789595 eV

  Derived energy quantities:
  | Kinetic energy                :          75.99330173 Ha        2067.88295268 eV
  | Electrostatic energy          :        -141.39769118 Ha       -3847.62694223 eV
  | Energy correction for multipole
  | error in Hartree potential    :          -0.01135816 Ha          -0.30907133 eV
  | Sum of eigenvalues per atom                           :        -601.59934241 eV
  | Total energy (T->0) per atom                          :       -1037.06894089 eV  <-- do not rely on this value for anything but (periodic) metals
  | Electronic free energy per atom                       :       -1037.06894798 eV

  Self-consistency convergence accuracy:
  | Change of charge/spin density : 0.1341E-01 0.8596E-02
  | Change of sum of eigenvalues  : 0.2557E-03 eV
  | Change of total energy        : 0.3552E-03 eV

  End self-consistency iteration #    70       :  max(cpu_time)    wall_clock(cpu1)
  | Time for this iteration                    :        5.045 s           5.056 s
  | Charge density update                      :        3.043 s           3.049 s
  | Density mixing & preconditioning           :        0.158 s           0.159 s
  | Hartree multipole update                   :        0.001 s           0.001 s
  | Hartree multipole summation                :        0.255 s           0.256 s
  | Integration                                :        1.572 s           1.576 s
  | Solution of K.-S. eqns.                    :        0.014 s           0.014 s
  | Total energy evaluation                    :        0.000 s           0.001 s
------------------------------------------------------------

------------------------------------------------------------
          Begin self-consistency iteration #   71

  Date     :  20220205, Time     :  092424.859
------------------------------------------------------------
  Evaluating new KS density using the density matrix
  Evaluating density matrix
  Evaluating density matrix
  Time summed over all CPUs for getting density from density matrix: real work       23.747 s, elapsed       24.162 s
  Integration grid: deviation in total charge (<rho> - N_e) =  -2.897291E-06
  | <rho_up-rho_dn> = N_up-N_dn =      0.0422; <|rho_up-rho_dn|> =      0.0614
  Pulay mixing of updated and previous charge densities.

  Evaluating partitioned Hartree potential by multipole expansion.
  | Analytical far-field extrapolation by fixed multipoles:
  | Hartree multipole sum: apparent total charge =  -0.375086E-05
  Summing up the Hartree potential.
  Time summed over all CPUs for potential: real work        1.962 s, elapsed        2.012 s
  | RMS charge density error from multipole expansion :   0.810772E-02
  | Average real-space part of the electrostatic potential :      0.24564670 eV

  Integrating Hamiltonian matrix: batch-based integration.
  Time summed over all CPUs for integration: real work       12.416 s, elapsed       12.601 s

  Updating Kohn-Sham eigenvalues, eigenvectors, occupation numbers, and Fermi level.
  Solving generalized eigenproblem
  Determining occupation numbers for Kohn-Sham eigenstates.
  | Chemical potential (Fermi level) in eV                 : -.54623342E+01
  | Error in electron count due to remaining E_F inaccuracy: -.77271523E-12
  | Maximum occupation number of highest empty state:  0.00E+00

  Current spin moment of the entire structure :
  | N = N_up - N_down (sum over all k points):         0.00335
  | S (sum over all k points)                :         0.00168

  What follows are estimated values for band gap, HOMO, LUMO, etc.
  | They are estimated on a discrete k-point grid and not necessarily exact.
  | For converged numbers, create a DOS and/or band structure plot on a denser k-grid.

  Highest occupied state (VBM) at     -5.46359343 eV (relative to internal zero)
  | Occupation number:      0.96252931
  | K-point:      11 at    0.333333    0.333333    0.000000 (in units of recip. lattice)
  | Spin channel:        2

  Lowest unoccupied state (CBM) at    -5.46121678 eV (relative to internal zero)
  | Occupation number:      0.05702316
  | K-point:      11 at    0.333333    0.333333    0.000000 (in units of recip. lattice)
  | Spin channel:        1

  ESTIMATED overall HOMO-LUMO gap:      0.00237665 eV between HOMO at k-point 11 and LUMO at k-point 11
  | This appears to be a direct band gap.
  However, the gap value is rather small. Since we use a finite k-point grid,
  this material is most likely metallic (in the sense that there are states
  at or near the Fermi level). A DOS and/or band structure plot is required
  for an unambiguous distinction.

  Total energy components:
  | Sum of eigenvalues            :         -44.21673876 Ha       -1203.19867985 eV
  | XC energy correction          :         -10.81877655 Ha        -294.39388843 eV
  | XC potential correction       :          13.89976452 Ha         378.23183686 eV
  | Free-atom electrostatic energy:         -33.32004492 Ha        -906.68455390 eV
  | Hartree energy correction     :          -1.76737168 Ha         -48.09263033 eV
  | van der Waals energy corr.    :           0.00000000 Ha           0.00000000 eV
  | Entropy correction            :          -0.00000019 Ha          -0.00000517 eV
  | ---------------------------
  | Total energy                  :         -76.22316739 Ha       -2074.13791565 eV
  | Total energy, T -> 0          :         -76.22316758 Ha       -2074.13792082 eV  <-- do not rely on this value for anything but (periodic) metals
  | Electronic free energy        :         -76.22316777 Ha       -2074.13792600 eV

  Derived energy quantities:
  | Kinetic energy                :          75.99330097 Ha        2067.88293202 eV
  | Electrostatic energy          :        -141.39769181 Ha       -3847.62695924 eV
  | Energy correction for multipole
  | error in Hartree potential    :          -0.01135818 Ha          -0.30907183 eV
  | Sum of eigenvalues per atom                           :        -601.59933993 eV
  | Total energy (T->0) per atom                          :       -1037.06896041 eV  <-- do not rely on this value for anything but (periodic) metals
  | Electronic free energy per atom                       :       -1037.06896300 eV

  Self-consistency convergence accuracy:
  | Change of charge/spin density : 0.7469E-02 0.4625E-02
  | Change of sum of eigenvalues  : 0.4968E-05 eV
  | Change of total energy        : -.4802E-04 eV

  End self-consistency iteration #    71       :  max(cpu_time)    wall_clock(cpu1)
  | Time for this iteration                    :        5.022 s           5.034 s
  | Charge density update                      :        3.021 s           3.028 s
  | Density mixing & preconditioning           :        0.154 s           0.155 s
  | Hartree multipole update                   :        0.001 s           0.001 s
  | Hartree multipole summation                :        0.255 s           0.255 s
  | Integration                                :        1.575 s           1.579 s
  | Solution of K.-S. eqns.                    :        0.014 s           0.013 s
  | Total energy evaluation                    :        0.000 s           0.000 s
------------------------------------------------------------

------------------------------------------------------------
          Begin self-consistency iteration #   72

  Date     :  20220205, Time     :  092429.896
------------------------------------------------------------
  Evaluating new KS density using the density matrix
  Evaluating density matrix
  Evaluating density matrix
  Time summed over all CPUs for getting density from density matrix: real work       23.793 s, elapsed       24.231 s
  Integration grid: deviation in total charge (<rho> - N_e) =  -3.207213E-06
  | <rho_up-rho_dn> = N_up-N_dn =      0.0072; <|rho_up-rho_dn|> =      0.0632
  Pulay mixing of updated and previous charge densities.

  Evaluating partitioned Hartree potential by multipole expansion.
  | Analytical far-field extrapolation by fixed multipoles:
  | Hartree multipole sum: apparent total charge =  -0.296260E-05
  Summing up the Hartree potential.
  Time summed over all CPUs for potential: real work        1.965 s, elapsed        2.015 s
  | RMS charge density error from multipole expansion :   0.810772E-02
  | Average real-space part of the electrostatic potential :      0.24569427 eV

  Integrating Hamiltonian matrix: batch-based integration.
  Time summed over all CPUs for integration: real work       12.205 s, elapsed       12.385 s

  Updating Kohn-Sham eigenvalues, eigenvectors, occupation numbers, and Fermi level.
  Solving generalized eigenproblem
  Determining occupation numbers for Kohn-Sham eigenstates.
  | Chemical potential (Fermi level) in eV                 : -.54622619E+01
  | Error in electron count due to remaining E_F inaccuracy: -.13983481E-10
  | Maximum occupation number of highest empty state:  0.00E+00

  Current spin moment of the entire structure :
  | N = N_up - N_down (sum over all k points):         0.00199
  | S (sum over all k points)                :         0.00099

  What follows are estimated values for band gap, HOMO, LUMO, etc.
  | They are estimated on a discrete k-point grid and not necessarily exact.
  | For converged numbers, create a DOS and/or band structure plot on a denser k-grid.

  Highest occupied state (VBM) at     -5.46297340 eV (relative to internal zero)
  | Occupation number:      0.84284130
  | K-point:      11 at    0.333333    0.333333    0.000000 (in units of recip. lattice)
  | Spin channel:        1

  Lowest unoccupied state (CBM) at    -5.46148932 eV (relative to internal zero)
  | Occupation number:      0.13728450
  | K-point:      11 at    0.333333    0.333333    0.000000 (in units of recip. lattice)
  | Spin channel:        1

  ESTIMATED overall HOMO-LUMO gap:      0.00148408 eV between HOMO at k-point 11 and LUMO at k-point 11
  | This appears to be a direct band gap.
  However, the gap value is rather small. Since we use a finite k-point grid,
  this material is most likely metallic (in the sense that there are states
  at or near the Fermi level). A DOS and/or band structure plot is required
  for an unambiguous distinction.

  Total energy components:
  | Sum of eigenvalues            :         -44.21673944 Ha       -1203.19869817 eV
  | XC energy correction          :         -10.81877592 Ha        -294.39387150 eV
  | XC potential correction       :          13.89976372 Ha         378.23181509 eV
  | Free-atom electrostatic energy:         -33.32004492 Ha        -906.68455390 eV
  | Hartree energy correction     :          -1.76736800 Ha         -48.09253019 eV
  | van der Waals energy corr.    :           0.00000000 Ha           0.00000000 eV
  | Entropy correction            :          -0.00000062 Ha          -0.00001696 eV
  | ---------------------------
  | Total energy                  :         -76.22316456 Ha       -2074.13783868 eV
  | Total energy, T -> 0          :         -76.22316518 Ha       -2074.13785565 eV  <-- do not rely on this value for anything but (periodic) metals
  | Electronic free energy        :         -76.22316581 Ha       -2074.13787261 eV

  Derived energy quantities:
  | Kinetic energy                :          75.99330154 Ha        2067.88294765 eV
  | Electrostatic energy          :        -141.39769018 Ha       -3847.62691483 eV
  | Energy correction for multipole
  | error in Hartree potential    :          -0.01135816 Ha          -0.30907122 eV
  | Sum of eigenvalues per atom                           :        -601.59934909 eV
  | Total energy (T->0) per atom                          :       -1037.06892782 eV  <-- do not rely on this value for anything but (periodic) metals
  | Electronic free energy per atom                       :       -1037.06893630 eV

  Self-consistency convergence accuracy:
  | Change of charge/spin density : 0.6187E-02 0.4224E-02
  | Change of sum of eigenvalues  : -.1832E-04 eV
  | Change of total energy        : 0.7697E-04 eV

  End self-consistency iteration #    72       :  max(cpu_time)    wall_clock(cpu1)
  | Time for this iteration                    :        5.007 s           5.016 s
  | Charge density update                      :        3.032 s           3.036 s
  | Density mixing & preconditioning           :        0.155 s           0.156 s
  | Hartree multipole update                   :        0.001 s           0.001 s
  | Hartree multipole summation                :        0.255 s           0.256 s
  | Integration                                :        1.549 s           1.552 s
  | Solution of K.-S. eqns.                    :        0.014 s           0.014 s
  | Total energy evaluation                    :        0.000 s           0.000 s
------------------------------------------------------------

------------------------------------------------------------
          Begin self-consistency iteration #   73

  Date     :  20220205, Time     :  092434.914
------------------------------------------------------------
  Evaluating new KS density using the density matrix
  Evaluating density matrix
  Evaluating density matrix
  Time summed over all CPUs for getting density from density matrix: real work       23.576 s, elapsed       24.011 s
  Integration grid: deviation in total charge (<rho> - N_e) =  -2.418983E-06
  | <rho_up-rho_dn> = N_up-N_dn =     -0.0044; <|rho_up-rho_dn|> =      0.0528
  Pulay mixing of updated and previous charge densities.

  Evaluating partitioned Hartree potential by multipole expansion.
  | Analytical far-field extrapolation by fixed multipoles:
  | Hartree multipole sum: apparent total charge =  -0.138203E-05
  Summing up the Hartree potential.
  Time summed over all CPUs for potential: real work        1.967 s, elapsed        2.016 s
  | RMS charge density error from multipole expansion :   0.810771E-02
  | Average real-space part of the electrostatic potential :      0.24548359 eV

  Integrating Hamiltonian matrix: batch-based integration.
  Time summed over all CPUs for integration: real work       12.208 s, elapsed       12.404 s

  Updating Kohn-Sham eigenvalues, eigenvectors, occupation numbers, and Fermi level.
  Solving generalized eigenproblem
  Determining occupation numbers for Kohn-Sham eigenstates.
  | Chemical potential (Fermi level) in eV                 : -.54620671E+01
  | Error in electron count due to remaining E_F inaccuracy: 0.38102854E-11
  | Maximum occupation number of highest empty state:  0.00E+00

  Current spin moment of the entire structure :
  | N = N_up - N_down (sum over all k points):         0.00248
  | S (sum over all k points)                :         0.00124

  What follows are estimated values for band gap, HOMO, LUMO, etc.
  | They are estimated on a discrete k-point grid and not necessarily exact.
  | For converged numbers, create a DOS and/or band structure plot on a denser k-grid.

  Highest occupied state (VBM) at     -5.46311160 eV (relative to internal zero)
  | Occupation number:      0.93018639
  | K-point:      11 at    0.333333    0.333333    0.000000 (in units of recip. lattice)
  | Spin channel:        1

  Lowest unoccupied state (CBM) at    -5.46086838 eV (relative to internal zero)
  | Occupation number:      0.04501846
  | K-point:      11 at    0.333333    0.333333    0.000000 (in units of recip. lattice)
  | Spin channel:        1

  ESTIMATED overall HOMO-LUMO gap:      0.00224321 eV between HOMO at k-point 11 and LUMO at k-point 11
  | This appears to be a direct band gap.
  However, the gap value is rather small. Since we use a finite k-point grid,
  this material is most likely metallic (in the sense that there are states
  at or near the Fermi level). A DOS and/or band structure plot is required
  for an unambiguous distinction.

  Total energy components:
  | Sum of eigenvalues            :         -44.21674662 Ha       -1203.19889356 eV
  | XC energy correction          :         -10.81877585 Ha        -294.39386941 eV
  | XC potential correction       :          13.89976357 Ha         378.23181095 eV
  | Free-atom electrostatic energy:         -33.32004492 Ha        -906.68455390 eV
  | Hartree energy correction     :          -1.76736397 Ha         -48.09242040 eV
  | van der Waals energy corr.    :           0.00000000 Ha           0.00000000 eV
  | Entropy correction            :          -0.00000021 Ha          -0.00000568 eV
  | ---------------------------
  | Total energy                  :         -76.22316778 Ha       -2074.13792634 eV
  | Total energy, T -> 0          :         -76.22316799 Ha       -2074.13793202 eV  <-- do not rely on this value for anything but (periodic) metals
  | Electronic free energy        :         -76.22316820 Ha       -2074.13793770 eV

  Derived energy quantities:
  | Kinetic energy                :          75.99330258 Ha        2067.88297582 eV
  | Electrostatic energy          :        -141.39769451 Ha       -3847.62703275 eV
  | Energy correction for multipole
  | error in Hartree potential    :          -0.01135814 Ha          -0.30907075 eV
  | Sum of eigenvalues per atom                           :        -601.59944678 eV
  | Total energy (T->0) per atom                          :       -1037.06896601 eV  <-- do not rely on this value for anything but (periodic) metals
  | Electronic free energy per atom                       :       -1037.06896885 eV

  Self-consistency convergence accuracy:
  | Change of charge/spin density : 0.3105E-02 0.3673E-02
  | Change of sum of eigenvalues  : -.1954E-03 eV
  | Change of total energy        : -.8765E-04 eV

  End self-consistency iteration #    73       :  max(cpu_time)    wall_clock(cpu1)
  | Time for this iteration                    :        4.979 s           4.990 s
  | Charge density update                      :        3.002 s           3.009 s
  | Density mixing & preconditioning           :        0.154 s           0.154 s
  | Hartree multipole update                   :        0.001 s           0.002 s
  | Hartree multipole summation                :        0.255 s           0.255 s
  | Integration                                :        1.551 s           1.555 s
  | Solution of K.-S. eqns.                    :        0.014 s           0.014 s
  | Total energy evaluation                    :        0.000 s           0.000 s
------------------------------------------------------------

------------------------------------------------------------
          Begin self-consistency iteration #   74

  Date     :  20220205, Time     :  092439.909
------------------------------------------------------------
  Evaluating new KS density using the density matrix
  Evaluating density matrix
  Evaluating density matrix
