  MPI-parallelism will be employed.
------------------------------------------------------------
          Invoking FHI-aims ...
          Version 052014
          Git rev. (modified): 096c982 Merge branch master of fhiaims:/pub/localo[...]
          Compiled on 2016/12/16 at 15:22:01 on host login02.hpc.iitd.ac.in.

          When using FHI-aims, please cite the following reference:

          Volker Blum, Ralf Gehrke, Felix Hanke, Paula Havu,
          Ville Havu, Xinguo Ren, Karsten Reuter, and Matthias Scheffler,
          'Ab Initio Molecular Simulations with Numeric Atom-Centered Orbitals: FHI-aims',
          Computer Physics Communications 180, 2175-2196 (2009)

          For any questions about FHI-aims, please visit the aimsclub website
          with its forums and wiki. Contributions to both the forums and the
          wiki are warmly encouraged - they are for you, and everyone is welcome there.

------------------------------------------------------------

  Date     :  20220226, Time     :  193703.085
  Time zero on CPU 1             :   0.253940000000000E-01  s.
  Internal wall clock time zero  :           415136223.085  s.

  Using        8 parallel tasks.
  Task        0 on host khas065 reporting.
  Task        1 on host khas065 reporting.
  Task        2 on host khas065 reporting.
  Task        3 on host khas065 reporting.
  Task        4 on host khas065 reporting.
  Task        5 on host khas065 reporting.
  Task        6 on host khas065 reporting.
  Task        7 on host khas065 reporting.

  Performing system and environment tests:
  | Environment variable OMP_NUM_THREADS correctly set to 1.
  | Stacksize not measured: no C compiler
  | Checking for scalapack...
  | Testing pdtran()...
  | All pdtran() tests passed.

  Obtaining array dimensions for all initial allocations:
  
  -----------------------------------------------------------------------
  Parsing control.in (first pass over file, find array dimensions only).
  The contents of control.in will be repeated verbatim below
  unless switched off by setting 'verbatim_writeout .false.' .
  in the first line of control.in .
  -----------------------------------------------------------------------
  
    xc               pbe
    spin             collinear
    default_initial_moment 0
    relativistic     atomic_zora scalar 1e-9
    occupation_type  gaussian 0.001
    charge	0
    vdw_correction_hirshfeld
    KS_method        scalapack_fast
    mixer            pulay
    charge_mix_param  0.4
    spin_mix_param    0.6
    sc_accuracy_rho  1E-4
    sc_accuracy_eev  1E-5
    sc_accuracy_etot 1E-5
    sc_iter_limit    100
    empty_states     5
    ####### keywords for DOS########
    k_grid  8 8 1
  ##########################
  #  relax_geometry trm 5E-5
  #  sc_accuracy_forces 1e-6
  ##########################
    output dos -20 20 10000 0.15
    dos_kgrid_factors 1 1 2
  
  ################################################################################
  #
  #  FHI-aims code project
  # Volker Blum, Fritz Haber Institute Berlin, 2009
  #
  #  Suggested "tight" defaults for C atom (to be pasted into control.in file)
  #
  ################################################################################
    species        C
  #     global species definitions
      nucleus             6
      mass                12.0107
  #
      l_hartree           6
  #
      cut_pot             4.0  2.0  1.0
      basis_dep_cutoff    1e-4
  #
      radial_base         34 7.0
      radial_multiplier   2
      angular_grids specified
        division   0.2187   50
        division   0.4416  110
        division   0.6335  194
        division   0.7727  302
        division   0.8772  434
  #      division   0.9334  590
  #      division   0.9924  770
  #      division   1.0230  974
  #      division   1.5020 1202
  #     outer_grid  974
        outer_grid  434
  ################################################################################
  #
  #  Definition of "minimal" basis
  #
  ################################################################################
  #     valence basis states
      valence      2  s   2.
      valence      2  p   2.
  #     ion occupancy
      ion_occ      2  s   1.
      ion_occ      2  p   1.
  ################################################################################
  #
  #  Suggested additional basis functions. For production calculations,
  #  uncomment them one after another (the most important basis functions are
  #  listed first).
  #
  #  Constructed for dimers: 1.0 A, 1.25 A, 1.5 A, 2.0 A, 3.0 A
  #
  ################################################################################
  #  "First tier" - improvements: -1214.57 meV to -155.61 meV
       hydro 2 p 1.7
       hydro 3 d 6
       hydro 2 s 4.9
  #  "Second tier" - improvements: -67.75 meV to -5.23 meV
       hydro 4 f 9.8
       hydro 3 p 5.2
       hydro 3 s 4.3
       hydro 5 g 14.4
       hydro 3 d 6.2
  #  "Third tier" - improvements: -2.43 meV to -0.60 meV
  #     hydro 2 p 5.6
  #     hydro 2 s 1.4
  #     hydro 3 d 4.9
  #     hydro 4 f 11.2
  #  "Fourth tier" - improvements: -0.39 meV to -0.18 meV
  #     hydro 2 p 2.1
  #     hydro 5 g 16.4
  #     hydro 4 d 13.2
  #     hydro 3 s 13.6
  #     hydro 4 f 17.6
  #  Further basis functions - improvements: -0.08 meV and below
  #     hydro 3 s 2
  #     hydro 3 p 6
  #     hydro 4 d 20
  ################################################################################
  #
  # For methods that use the localized form of the "resolution of identity" for
  # the two-electron Coulomb operator (RI_method LVL), particularly Hartree-Fock and
  # hybrid density functional calculations, the highest accuracy can be obtained by
  # uncommenting the line beginning with "for_aux"  below, thus adding an extra g radial
  # function to the construction of the product basis set for the expansion.
  # See Ref. New J. Phys. 17, 093020 (2015) for more information, particularly Figs. 1 and 6.
  #
  ################################################################################
  #
  # for_aux hydro 5 g 6.0
  
  -----------------------------------------------------------------------
  Completed first pass over input file control.in .
  -----------------------------------------------------------------------
  
  
  -----------------------------------------------------------------------
  Parsing geometry.in (first pass over file, find array dimensions only).
  The contents of geometry.in will be repeated verbatim below
  unless switched off by setting 'verbatim_writeout .false.' .
  in the first line of geometry.in .
  -----------------------------------------------------------------------
  
  lattice_vector   2.1304216  -1.2299995   0.0000000
  lattice_vector   0.0000000   2.4599989   0.0000000
  lattice_vector   0.0000000   0.0000000   6.8000000
  
  atom_frac                      -0.666667  -0.333333   0.500000  C
  atom_frac                       0.666667   0.333333   0.500000  C
  
  
  -----------------------------------------------------------------------
  Completed first pass over input file geometry.in .
  -----------------------------------------------------------------------
  

  Basic array size parameters:
  | Number of species                 :        1
  | Number of atoms                   :        2
  | Number of lattice vectors         :        3
  | Max. basis fn. angular momentum   :        4
  | Max. atomic/ionic basis occupied n:        2
  | Max. number of basis fn. types    :        2
  | Max. radial fns per species/type  :        8
  | Max. logarithmic grid size        :     1277
  | Max. radial integration grid size :       69
  | Max. angular integration grid size:      434
  | Max. angular grid division number :        8
  | Radial grid for Hartree potential :     1277
  | Number of spin channels           :        2

------------------------------------------------------------
          Reading file control.in.
------------------------------------------------------------
  XC: Using PBE gradient-corrected functionals.
  Spin treatment: Spin density functional theory - collinear spins.
  Initial spin moment per atom:   0.0000
  Scalar relativistic treatment of kinetic energy: on-site free-atom approximation to ZORA.
  Occupation type: Gaussian broadening, width =   0.100000E-02 eV.
  Charge =   0.000000E+00: Neutral system requested explicitly.
  Using non-empirical van der Waals correction (Hirshfeld partitioning):
  Kohn-Sham eigenvalues and eigenfunctions calculated by the ELPA eigensolver library.
  Using pulay charge density mixing.
  Charge density mixing - mixing parameter:     0.4000
  Spin density mixing - mixing parameter:     0.6000
  Convergence accuracy of self-consistent charge density: 0.1000E-03
  Convergence accuracy of sum of eigenvalues: 0.1000E-04
  Convergence accuracy of total energy: 0.1000E-04
  Maximum number of s.-c. iterations  :   100
  Number of empty states per atom:        5
  Found k-point grid:         8         8         1
  Calculating density of states with
  | energy interval :-20.000000 20.000000
  | points & broadening : 10000  0.150000
  Found k-point grid multipliers for perturbative DOS :         1         1         2
 
  Reading configuration options for species C                   .
  | Found nuclear charge :   6.0000
  | Found atomic mass :    12.0107000000000      amu
  | Found l_max for Hartree potential  :   6
  | Found cutoff potl. onset [A], width [A], scale factor :    4.00000    2.00000    1.00000
  | Threshold for basis-dependent cutoff potential is   0.100000E-03
  | Found data for basic radial integration grid :    34 points, outermost radius =    7.000 A
  | Found multiplier for basic radial grid :   2
  | Found angular grid specification: user-specified.
  | Specified grid contains     6 separate shells.
  | Check grid settings after all constraints further below.
  | Found free-atom valence shell :  2 s   2.000
  | Found free-atom valence shell :  2 p   2.000
  | No ionic wave fns used. Skipping ion_occ.
  | No ionic wave fns used. Skipping ion_occ.
  | Found hydrogenic basis function :  2 p   1.700
  | Found hydrogenic basis function :  3 d   6.000
  | Found hydrogenic basis function :  2 s   4.900
  | Found hydrogenic basis function :  4 f   9.800
  | Found hydrogenic basis function :  3 p   5.200
  | Found hydrogenic basis function :  3 s   4.300
  | Found hydrogenic basis function :  5 g  14.400
  | Found hydrogenic basis function :  3 d   6.200
  Species C                   : Missing cutoff potential type.
  Defaulting to exp(1/x)/(1-x)^2 type cutoff potential.
  Species C : No 'logarithmic' tag. Using default grid for free atom:
  | Default logarithmic grid data [bohr] : 0.1000E-03 0.1000E+03 0.1012E+01
  Species C : On-site basis accuracy parameter (for Gram-Schmidt orthonormalisation) not specified.
  Using default value basis_acc =  0.1000000E-03.
  Species C                   : Using default innermost maximum threshold i_radial=  2 for radial functions.
  Species C                   : Default cutoff onset for free atom density etc. : 0.40000000E+01 AA.
  Species C                   : Basic radial grid will be enhanced according to radial_multiplier =   2, to contain    69 grid points.
 
  Finished reading input file 'control.in'. Consistency checks are next.
 
  Target number of points in a grid batch is not set. Defaulting to  100
  Method for grid partitioning is not set. Defaulting to parallel hash+maxmin partitioning.
  Batch size limit is not set. Defaulting to    200
  By default, will store active basis functions for each batch.
  If in need of memory, prune_basis_once .false. can be used to disable this option.
  communication_type for Hartree potential was not specified.
  Defaulting to calc_hartree .
  Pulay mixer: Number of relevant iterations not set.
  Defaulting to    8 iterations.
  Pulay mixer: Number of initial linear mixing iterations not set.
  Defaulting to    0 iterations.
  Work space size for distributed Hartree potential not set.
  Defaulting to   0.200000E+03 MB.
  Algorithm-dependent basis array size parameters:
  | n_max_pulay                         :        8
  Calculation of forces was not defined in control.in. No forces will be calculated.
  Geometry relaxation not requested: no relaxation will be performed.
  No accuracy limit for integral partition fn. given. Defaulting to 0.1000E-14.
  No threshold value for u(r) in integrations given. Defaulting to 0.1000E-05.
  No accuracy for occupation numbers given. Defaulting to 0.1000E-07.
  No threshold value for occupation numbers given. Defaulting to 0.0000E+00.
  No accuracy for fermi level given. Defaulting to 0.1000E-19.
  Maximum # of iterations to find E_F not set. Defaulting to  200.
 * You have    64 k-points in your system, but only     8 MPI-tasks available.
 * In this case using ScaLAPACK is not necessary / supported.
 * Switching to default eigenvalue solver (lapack_fast) instead.
  Will not use alltoall communication since running on < 1024 CPUs.
  Threshold for basis singularities not set.
  Default threshold for basis singularities: 0.1000E-04
  partition_type (choice of integration weights) for integrals was not specified.
  | Using a version of the partition function of Stratmann and coworkers ('stratmann_smoother').
  | At each grid point, the set of atoms used to build the partition table is smoothly restricted to
  | only those atoms whose free-atom density would be non-zero at that grid point.
  Partitioning for Hartree potential was not defined. Using partition_type for integrals.
  | Adjusted default value of keyword multip_moments_threshold to:       0.10000000E-11
  | This value may affect high angular momentum components of the Hartree potential in periodic systems.
  Angular momentum expansion for Kerker preconditioner not set explicitly.
  | Using default value of   0
  No explicit requirement for turning off preconditioner.
  | By default, it will be turned off when the charge convergence reaches
  | sc_accuracy_rho  =   0.100000E-03
  | sc_accuracy_eev  =   0.100000E-04
  | sc_accuracy_etot =   0.100000E-04
  No special mixing parameter while Kerker preconditioner is on.
  Using default: charge_mix_param =     0.4000.
  No q(lm)/r^(l+1) cutoff set for long-range Hartree potential.
  | Using default value of  0.100000E-09 .
  | Verify using the multipole_threshold keyword.
  Defaulting to new monopole extrapolation.
  Density update method: automatic selection selected.
  Using density matrix based charge density update.
  Using density matrix based charge density update.
  Using packed matrix style: index .
  Defaulting to use time-reversal symmetry for k-point grid.
  Using the following vdw_convergence_threshold for supercell sums
  over the Tkatchenko-Scheffler correction: 0.100000E-04 eV.
------------------------------------------------------------


------------------------------------------------------------
          Reading geometry description geometry.in.
------------------------------------------------------------
  Input structure read successfully.
  The structure contains        2 atoms,  and a total of         12.000 electrons.

  Input geometry:
  | Unit cell:
  |         2.130422        -1.229999         0.000000
  |         0.000000         2.459999         0.000000
  |         0.000000         0.000000         6.800000
  | Atomic structure:
  |       Atom                x [A]            y [A]            z [A]
  |    1: Species C             -1.420282         0.000001         3.400000
  |    2: Species C              1.420282        -0.000001         3.400000
  |

  | The smallest distance between any two atoms is         1.42027960 AA.
  |
  | The first atom of this pair is atom number                      2 .
  | The second atom of this pair is atom number                     1 .
  | Wigner-Seitz cell of the first atom image           1     0     0 .
  | (The Wigner-Seitz cell of the second atom is 0 0 0  by definition.)

  Quantities derived from the lattice vectors:
  | Reciprocal lattice vector 1:  2.949268 -0.000000  0.000000
  | Reciprocal lattice vector 2:  1.474634  2.554142  0.000000
  | Reciprocal lattice vector 3:  0.000000  0.000000  0.923998
  | Unit cell volume                               :   0.356377E+02  A^3

  Initial moments and charges:
  |  Atom   Moment         Charge        Species
  |     1   0.000000E+00   0.000000E+00   C
  |     2   0.000000E+00   0.000000E+00   C

  Structure-dependent array size parameters: 
  | Number of distinct atom types in initial rho :        1
  | Maximum number of distinct radial functions  :       11
  | Maximum number of basis functions            :       78
  | Number of Kohn-Sham states (occupied + empty):       11
------------------------------------------------------------

------------------------------------------------------------
          Preparing all fixed parts of the calculation.
------------------------------------------------------------
  Determining machine precision:
    2.225073858507201E-308
  Setting up grids for atomic and cluster calculations.

  Creating wave function, potential, and density for free atoms.

  Species: C

  List of occupied orbitals and eigenvalues:
    n    l              occ      energy [Ha]    energy [eV]
    1    0           2.0000       -10.049212      -273.4530
    2    0           2.0000        -0.504761       -13.7352
    2    1           2.0000        -0.193631        -5.2690

  Spin-polarized or charged system:
  Charge density initialized according to selected moments and charges.

  Creating spin-polarized density from free atoms.

  Species: C
  Charge:   0.000000
  Moment:   0.000000

  List of occupied orbitals and eigenvalues:
    n    l      energy [Ha]    energy [eV]    occupation
  Spin-up
    1    0       -10.049212      -273.4530     1.00000000
    2    0        -0.504761       -13.7352     1.00000000
    2    1        -0.193631        -5.2690     1.00000000
  Spin-down
    1    0       -10.049212      -273.4530     1.00000000
    2    0        -0.504761       -13.7352     1.00000000
    2    1        -0.193631        -5.2690     1.00000000

  Creating fixed part of basis set: Ionic, confined, hydrogenic.
 
  C                    hydrogenic:
 
  List of hydrogenic basis orbitals: 
    n    l      effective z      eigenvalue [eV]  inner max. [A]     outer max. [A]     outer radius [A]   
    2    1         1.700000        -9.8152           1.245706           1.245706           5.401630
    3    2         6.000000       -54.4226           0.792453           0.792453           4.178599
    2    0         4.900000       -81.6681           0.082559           0.562749           3.353238
    4    3         9.800000       -81.6681           0.863254           0.863254           4.028125
    3    1         5.200000       -40.8774           0.305389           1.215618           4.898362
    3    0         4.300000       -27.9508           0.091041           1.610311           5.401630
    5    4        14.400000      -112.8510           0.917666           0.917666           3.883070
    3    2         6.200000       -58.1113           0.763917           0.763917           4.077671
 

  Adding cutoff potential to free-atom effective potential.
  Creating atomic-like basis functions for current effective potential.

  Species C                   :

  List of atomic basis orbitals and eigenvalues:
    n    l      energy [Ha]    energy [eV]    outer radius [A]
    1    0       -10.049212      -273.4530       1.934409
    2    0        -0.504761       -13.7352       5.271162
    2    1        -0.193631        -5.2690       5.401630

  Assembling full basis from fixed parts.
  | Species C :   atomic orbital   1 s accepted.
  | Species C :    hydro orbital   2 s accepted.
  | Species C :   atomic orbital   2 s accepted.
  | Species C :    hydro orbital   3 s accepted.
  | Species C :    hydro orbital   3 p accepted.
  | Species C :   atomic orbital   2 p accepted.
  | Species C :    hydro orbital   2 p accepted.
  | Species C :    hydro orbital   3 d accepted.
  | Species C :    hydro orbital   3 d accepted.
  | Species C :    hydro orbital   4 f accepted.
  | Species C :    hydro orbital   5 g accepted.
 
  Basis size parameters after reduction:
  | Total number of radial functions:       11
  | Total number of basis functions :       78
 
  Testing on-site integration grid accuracy.
  |  Species  Function  <phi|h_atom|phi> (log., in eV)  <phi|h_atom|phi> (rad., in eV)
           1        1               -273.4529725981               -273.4529710451
           1        2                -10.7721037329                -10.7721022102
           1        3                 17.6044132585                 17.6044162052
           1        4                 53.7706460564                 53.7706913681
           1        5                 15.0973290351                 15.0973256011
           1        6                  3.8545134677                  3.8545724657
           1        7                 12.1156992586                 12.1182024423
           1        8                 29.4352039288                 29.4352041805
           1        9                 54.8741144697                 54.8740268719
           1       10                 59.3556032036                 59.3556031370
           1       11                 93.4551837140                 93.4551837996

  Preparing densities etc. for the partition functions (integrals / Hartree potential).

  Preparations completed.
  max(cpu_time)          :      0.180 s.
  Wall clock time (cpu1) :      0.184 s.
------------------------------------------------------------

------------------------------------------------------------
          Begin self-consistency loop: Initialization.

          Date     :  20220226, Time     :  193703.384
------------------------------------------------------------

  Initializing index lists of integration centers etc. from given atomic structure:
  Mapping all atomic coordinates to central unit cell.

  Initializing the k-points
          Using symmetry for reducing the k-points
  | k-points reduced from:       64 to       34
  | Number of k-points                             :        34
  The eigenvectors in the calculations are COMPLEX.
  | K-points in task   0:         4
  | K-points in task   1:         5
  | K-points in task   2:         5
  | K-points in task   3:         4
  | K-points in task   4:         4
  | K-points in task   5:         4
  | K-points in task   6:         4
  | K-points in task   7:         4
  | Number of basis functions in the Hamiltonian integrals :      3472
  | Number of basis functions in a single unit cell        :        78
  | Number of centers in hartree potential         :       646
  | Number of centers in hartree multipole         :       548
  | Number of centers in electron density summation:       428
  | Number of centers in basis integrals           :       456
  | Number of centers in integrals                 :       136
  | Consuming        124 KiB for k_phase.
  | Number of super-cells :                 234
  | Size of matrix packed + index :      284874
  Perform CPU consistency test for lattice for partition grid
  Perform CPU consistency test for map_to_center_cell_matrix for partition grid
  Partitioning the integration grid into batches with parallel hashing+maxmin method.
  | Number of batches:      496
  | Maximal batch size:     108
  | Minimal batch size:      50
  | Average batch size:      72.895
  | Standard deviation of batch sizes:      20.938

  Integration load balanced across     8 MPI tasks.
  Work distribution over tasks is as follows:
  Task     0 has       4522 integration points.
  Task     1 has       4521 integration points.
  Task     2 has       4485 integration points.
  Task     3 has       4502 integration points.
  Task     4 has       4502 integration points.
  Task     5 has       4538 integration points.
  Task     6 has       4549 integration points.
  Task     7 has       4537 integration points.
  Initializing partition tables, free-atom densities, potentials, etc. across the integration grid (initialize_grid_storage).
  | initialize_grid_storage: Actual outermost partition radius vs. multipole_radius_free
  | (-- VB: in principle, multipole_radius_free should be larger, hence this output)
  | Species        1: outer_partition_radius =              6.000000000000000 AA, multipole_radius_free =              6.029870734432609 AA.
  | Original list of interatomic distances with         456 x        456 entries is created.
  | Net number of integration points:    36156
  | of which are non-zero points    :    26826
  | Numerical average free-atom electrostatic potential    :     -6.92761138 eV
  Obtaining max. number of non-zero basis functions in each batch (get_n_compute_maxes).
  | Maximal number of non-zero basis functions:     1323 in task     0
  | Maximal number of non-zero basis functions:     1222 in task     1
  | Maximal number of non-zero basis functions:     1309 in task     2
  | Maximal number of non-zero basis functions:     1309 in task     3
  | Maximal number of non-zero basis functions:     1309 in task     4
  | Maximal number of non-zero basis functions:     1309 in task     5
  | Maximal number of non-zero basis functions:     1318 in task     6
  | Maximal number of non-zero basis functions:     1309 in task     7
  Integrating Hamiltonian matrix: batch-based integration.
  Time summed over all CPUs for integration: real work       15.732 s, elapsed       16.286 s
  Integrating overlap matrix.
  Time summed over all CPUs for integration: real work        6.557 s, elapsed        6.811 s
  Decreasing sparse matrix size:
   Tolerance:  9.999999824516700E-014
   Hamiltonian matrix
  | Array has   179213 nonzero elements out of   284874 elements
  | Sparsity factor is 0.371
   Overlap matrix
  | Array has   161147 nonzero elements out of   284874 elements
  | Sparsity factor is 0.434
  New size of hamiltonian matrix:      180036

  Updating Kohn-Sham eigenvalues, eigenvectors, occupation numbers, and Fermi level.
  Solving generalized eigenproblem
  Transforming overlap matrix and checking for singularities.
  Overlap matrix is nonsingular at first k-point:
  | Lowest eigenvalue:  0.153553E-03
  Determining occupation numbers for Kohn-Sham eigenstates.
  | Chemical potential (Fermi level) in eV                 : -.86770069E+01
  | Error in electron count due to remaining E_F inaccuracy: 0.00000000E+00
  | Maximum occupation number of highest empty state:  0.00E+00

  Writing Kohn-Sham eigenvalues.

  Spin-up eigenvalues:
  K-point:       1 at    0.000000    0.000000    0.000000 (in units of recip. lattice)

  State    Occupation    Eigenvalue [Ha]    Eigenvalue [eV]
      1       1.00000         -10.166488         -276.64421
      2       1.00000         -10.165530         -276.61815
      3       1.00000          -1.047180          -28.49522
      4       1.00000          -0.571653          -15.55546
      5       1.00000          -0.468422          -12.74640
      6       1.00000          -0.468418          -12.74630
      7       0.00000          -0.029486           -0.80236
      8       0.00000          -0.029481           -0.80222
      9       0.00000          -0.001127           -0.03066
     10       0.00000           0.062689            1.70586
     11       0.00000           0.097037            2.64050

  Spin-down eigenvalues:
  K-point:       1 at    0.000000    0.000000    0.000000 (in units of recip. lattice)

  State    Occupation    Eigenvalue [Ha]    Eigenvalue [eV]
      1       1.00000         -10.166488         -276.64421
      2       1.00000         -10.165530         -276.61815
      3       1.00000          -1.047180          -28.49522
      4       1.00000          -0.571653          -15.55546
      5       1.00000          -0.468422          -12.74640
      6       1.00000          -0.468418          -12.74630
      7       0.00000          -0.029486           -0.80236
      8       0.00000          -0.029481           -0.80222
      9       0.00000          -0.001127           -0.03066
     10       0.00000           0.062689            1.70586
     11       0.00000           0.097037            2.64050

  Current spin moment of the entire structure :
  | N = N_up - N_down (sum over all k points):         0.00000
  | S (sum over all k points)                :         0.00000

  What follows are estimated values for band gap, HOMO, LUMO, etc.
  | They are estimated on a discrete k-point grid and not necessarily exact.
  | For converged numbers, create a DOS and/or band structure plot on a denser k-grid.

  Highest occupied state (VBM) at     -9.21873418 eV (relative to internal zero)
  | Occupation number:      1.00000000
  | K-point:      32 at    0.750000    0.625000    0.000000 (in units of recip. lattice)
  | Spin channel:        1

  Lowest unoccupied state (CBM) at    -7.26543824 eV (relative to internal zero)
  | Occupation number:      0.00000000
  | K-point:      20 at    0.375000    0.250000    0.000000 (in units of recip. lattice)
  | Spin channel:        1

  ESTIMATED overall HOMO-LUMO gap:      1.95329594 eV between HOMO at k-point 32 and LUMO at k-point 20
  | This appears to be an indirect band gap.
  | Smallest direct gap :      1.95329775 eV for k_point 20 at    0.375000    0.250000    0.000000 (in units of recip. lattice)
  | Direct gap HOMO spin channel :     1
  | Direct gap LUMO spin channel :     1
  The gap value is above 0.2 eV. Unless you are using a very sparse k-point grid,
  this system is most likely an insulator or a semiconductor.
  Calculating total energy contributions from superposition of free atom densities.

  Total energy components:
  | Sum of eigenvalues            :         -45.99572520 Ha       -1251.60736391 eV
  | XC energy correction          :         -10.69818935 Ha        -291.11254393 eV
  | XC potential correction       :          13.74332519 Ha         373.97490602 eV
  | Free-atom electrostatic energy:         -33.32004492 Ha        -906.68455390 eV
  | Hartree energy correction     :           0.00000000 Ha           0.00000000 eV
  | van der Waals energy corr.    :           0.00000000 Ha           0.00000000 eV
  | Entropy correction            :           0.00000000 Ha           0.00000000 eV
  | ---------------------------
  | Total energy                  :         -76.27063429 Ha       -2075.42955572 eV
  | Total energy, T -> 0          :         -76.27063429 Ha       -2075.42955572 eV  <-- do not rely on this value for anything but (periodic) metals
  | Electronic free energy        :         -76.27063429 Ha       -2075.42955572 eV

  Derived energy quantities:
  | Kinetic energy                :          75.93592110 Ha        2066.32154630 eV
  | Electrostatic energy          :        -141.50836603 Ha       -3850.63855809 eV
  | Energy correction for multipole
  | error in Hartree potential    :           0.00000000 Ha           0.00000000 eV
  | Sum of eigenvalues per atom                           :        -625.80368195 eV
  | Total energy (T->0) per atom                          :       -1037.71477786 eV  <-- do not rely on this value for anything but (periodic) metals
  | Electronic free energy per atom                       :       -1037.71477786 eV
  Initialize hartree_potential_storage
  Max. number of atoms included in rho_multipole:            2

  End scf initialization - timings             :  max(cpu_time)    wall_clock(cpu1)
  | Time for scf. initialization               :        3.500 s           3.542 s
  | Boundary condition initialization          :        0.065 s           0.066 s
  | Integration                                :        2.907 s           2.909 s
  | Solution of K.-S. eqns.                    :        0.063 s           0.095 s
  | Grid partitioning                          :        0.058 s           0.063 s
  | Preloading free-atom quantities on grid    :        0.009 s           0.009 s
  | Free-atom superposition energy             :        0.033 s           0.033 s
  | Total energy evaluation                    :        0.000 s           0.000 s
------------------------------------------------------------

------------------------------------------------------------
          Begin self-consistency iteration #    1

  Date     :  20220226, Time     :  193706.926
------------------------------------------------------------
  Evaluating new KS density using the density matrix
  Evaluating density matrix
  Evaluating density matrix
  Time summed over all CPUs for getting density from density matrix: real work       30.771 s, elapsed       31.976 s
  Integration grid: deviation in total charge (<rho> - N_e) =  -3.571488E-07
  | <rho_up-rho_dn> = N_up-N_dn =      0.0000; <|rho_up-rho_dn|> =      0.0000
  Pulay mixing of updated and previous charge densities.

  Evaluating partitioned Hartree potential by multipole expansion.
  | Analytical far-field extrapolation by fixed multipoles:
  | Hartree multipole sum: apparent total charge =   0.382523E-03
  Summing up the Hartree potential.
  | Estimated reciprocal-space cutoff momentum G_max:         3.32253784 bohr^-1 .
  | Reciprocal lattice points for long-range Hartree potential:     150
  Time summed over all CPUs for potential: real work        2.300 s, elapsed        2.346 s
  | RMS charge density error from multipole expansion :   0.296454E-02
  | Average real-space part of the electrostatic potential :      0.10387479 eV

  Integrating Hamiltonian matrix: batch-based integration.
  Time summed over all CPUs for integration: real work       14.750 s, elapsed       15.255 s

  Updating Kohn-Sham eigenvalues, eigenvectors, occupation numbers, and Fermi level.
  Solving generalized eigenproblem
  Determining occupation numbers for Kohn-Sham eigenstates.
  | Chemical potential (Fermi level) in eV                 : -.77661683E+01
  | Error in electron count due to remaining E_F inaccuracy: 0.00000000E+00
  | Maximum occupation number of highest empty state:  0.00E+00

  Writing Kohn-Sham eigenvalues.

  Spin-up eigenvalues:
  K-point:       1 at    0.000000    0.000000    0.000000 (in units of recip. lattice)

  State    Occupation    Eigenvalue [Ha]    Eigenvalue [eV]
      1       1.00000         -10.070304         -274.02691
      2       1.00000         -10.069341         -274.00070
      3       1.00000          -0.986718          -26.84996
      4       1.00000          -0.528839          -14.39043
      5       1.00000          -0.394434          -10.73310
      6       1.00000          -0.394431          -10.73302
      7       0.00000           0.007554            0.20556
      8       0.00000           0.036044            0.98081
      9       0.00000           0.036049            0.98094
     10       0.00000           0.064749            1.76192
     11       0.00000           0.157013            4.27254

  Spin-down eigenvalues:
  K-point:       1 at    0.000000    0.000000    0.000000 (in units of recip. lattice)

  State    Occupation    Eigenvalue [Ha]    Eigenvalue [eV]
      1       1.00000         -10.070304         -274.02691
      2       1.00000         -10.069341         -274.00070
      3       1.00000          -0.986718          -26.84996
      4       1.00000          -0.528839          -14.39043
      5       1.00000          -0.394434          -10.73310
      6       1.00000          -0.394431          -10.73302
      7       0.00000           0.007554            0.20556
      8       0.00000           0.036044            0.98081
      9       0.00000           0.036049            0.98094
     10       0.00000           0.064749            1.76192
     11       0.00000           0.157013            4.27254

  Current spin moment of the entire structure :
  | N = N_up - N_down (sum over all k points):         0.00000
  | S (sum over all k points)                :         0.00000

  What follows are estimated values for band gap, HOMO, LUMO, etc.
  | They are estimated on a discrete k-point grid and not necessarily exact.
  | For converged numbers, create a DOS and/or band structure plot on a denser k-grid.

  Highest occupied state (VBM) at     -7.90751140 eV (relative to internal zero)
  | Occupation number:      1.00000000
  | K-point:      32 at    0.750000    0.625000    0.000000 (in units of recip. lattice)
  | Spin channel:        2

  Lowest unoccupied state (CBM) at    -5.93948977 eV (relative to internal zero)
  | Occupation number:      0.00000000
  | K-point:      20 at    0.375000    0.250000    0.000000 (in units of recip. lattice)
  | Spin channel:        1

  ESTIMATED overall HOMO-LUMO gap:      1.96802163 eV between HOMO at k-point 32 and LUMO at k-point 20
  | This appears to be an indirect band gap.
  | Smallest direct gap :      1.96802303 eV for k_point 20 at    0.375000    0.250000    0.000000 (in units of recip. lattice)
  | Direct gap HOMO spin channel :     1
  | Direct gap LUMO spin channel :     1
  The gap value is above 0.2 eV. Unless you are using a very sparse k-point grid,
  this system is most likely an insulator or a semiconductor.

  Total energy components:
  | Sum of eigenvalues            :         -45.12016207 Ha       -1227.78207892 eV
  | XC energy correction          :         -10.75700770 Ha        -292.71307259 eV
  | XC potential correction       :          13.81943762 Ha         376.04603070 eV
  | Free-atom electrostatic energy:         -33.32004492 Ha        -906.68455390 eV
  | Hartree energy correction     :          -0.85972963 Ha         -23.39443364 eV
  | van der Waals energy corr.    :           0.00000000 Ha           0.00000000 eV
  | Entropy correction            :           0.00000000 Ha           0.00000000 eV
  | ---------------------------
  | Total energy                  :         -76.23750671 Ha       -2074.52810835 eV
  | Total energy, T -> 0          :         -76.23750671 Ha       -2074.52810835 eV  <-- do not rely on this value for anything but (periodic) metals
  | Electronic free energy        :         -76.23750671 Ha       -2074.52810835 eV

  Derived energy quantities:
  | Kinetic energy                :          76.11060882 Ha        2071.07504126 eV
  | Electrostatic energy          :        -141.59110783 Ha       -3852.89007702 eV
  | Energy correction for multipole
  | error in Hartree potential    :          -0.00417903 Ha          -0.11371720 eV
  | Sum of eigenvalues per atom                           :        -613.89103946 eV
  | Total energy (T->0) per atom                          :       -1037.26405418 eV  <-- do not rely on this value for anything but (periodic) metals
  | Electronic free energy per atom                       :       -1037.26405418 eV

  Self-consistency convergence accuracy:
  | Change of charge/spin density : 0.2344E+00 0.3416E-18
  | Change of sum of eigenvalues  : 0.2383E+02 eV
  | Change of total energy        : 0.9014E+00 eV

  End self-consistency iteration #     1       :  max(cpu_time)    wall_clock(cpu1)
  | Time for this iteration                    :        6.482 s           6.487 s
  | Charge density update                      :        4.010 s           4.012 s
  | Density mixing & preconditioning           :        0.227 s           0.227 s
  | Hartree multipole update                   :        0.002 s           0.002 s
  | Hartree multipole summation                :        0.301 s           0.302 s
  | Integration                                :        1.914 s           1.914 s
  | Solution of K.-S. eqns.                    :        0.029 s           0.029 s
  | Total energy evaluation                    :        0.000 s           0.001 s
------------------------------------------------------------

------------------------------------------------------------
          Begin self-consistency iteration #    2

  Date     :  20220226, Time     :  193713.417
------------------------------------------------------------
  Evaluating new KS density using the density matrix
  Evaluating density matrix
  Evaluating density matrix
  Time summed over all CPUs for getting density from density matrix: real work       30.741 s, elapsed       32.034 s
  Integration grid: deviation in total charge (<rho> - N_e) =   3.825123E-04
  | <rho_up-rho_dn> = N_up-N_dn =     -0.0000; <|rho_up-rho_dn|> =      0.0000
  Pulay mixing of updated and previous charge densities.

  Evaluating partitioned Hartree potential by multipole expansion.
  | Analytical far-field extrapolation by fixed multipoles:
  | Hartree multipole sum: apparent total charge =   0.950545E-03
  Summing up the Hartree potential.
  Time summed over all CPUs for potential: real work        2.394 s, elapsed        2.439 s
  | RMS charge density error from multipole expansion :   0.713253E-02
  | Average real-space part of the electrostatic potential :      0.23465669 eV

  Integrating Hamiltonian matrix: batch-based integration.
  Time summed over all CPUs for integration: real work       14.746 s, elapsed       15.255 s

  Updating Kohn-Sham eigenvalues, eigenvectors, occupation numbers, and Fermi level.
  Solving generalized eigenproblem
  Determining occupation numbers for Kohn-Sham eigenstates.
  | Chemical potential (Fermi level) in eV                 : -.62784330E+01
  | Error in electron count due to remaining E_F inaccuracy: 0.00000000E+00
  | Maximum occupation number of highest empty state:  0.00E+00

  Current spin moment of the entire structure :
  | N = N_up - N_down (sum over all k points):         0.00000
  | S (sum over all k points)                :         0.00000

  What follows are estimated values for band gap, HOMO, LUMO, etc.
  | They are estimated on a discrete k-point grid and not necessarily exact.
  | For converged numbers, create a DOS and/or band structure plot on a denser k-grid.

  Highest occupied state (VBM) at     -6.40992016 eV (relative to internal zero)
  | Occupation number:      1.00000000
  | K-point:      20 at    0.375000    0.250000    0.000000 (in units of recip. lattice)
  | Spin channel:        2

  Lowest unoccupied state (CBM) at    -4.42586413 eV (relative to internal zero)
  | Occupation number:      0.00000000
  | K-point:      20 at    0.375000    0.250000    0.000000 (in units of recip. lattice)
  | Spin channel:        1

  ESTIMATED overall HOMO-LUMO gap:      1.98405604 eV between HOMO at k-point 20 and LUMO at k-point 20
  | This appears to be a direct band gap.
  The gap value is above 0.2 eV. Unless you are using a very sparse k-point grid,
  this system is most likely an insulator or a semiconductor.

  Total energy components:
  | Sum of eigenvalues            :         -44.12763857 Ha       -1200.77414011 eV
  | XC energy correction          :         -10.83035439 Ha        -294.70893770 eV
  | XC potential correction       :          13.91412700 Ha         378.62265985 eV
  | Free-atom electrostatic energy:         -33.32004492 Ha        -906.68455390 eV
  | Hartree energy correction     :          -1.86132672 Ha         -50.64927704 eV
  | van der Waals energy corr.    :           0.00000000 Ha           0.00000000 eV
  | Entropy correction            :           0.00000000 Ha           0.00000000 eV
  | ---------------------------
  | Total energy                  :         -76.22523760 Ha       -2074.19424891 eV
  | Total energy, T -> 0          :         -76.22523760 Ha       -2074.19424891 eV  <-- do not rely on this value for anything but (periodic) metals
  | Electronic free energy        :         -76.22523760 Ha       -2074.19424891 eV

  Derived energy quantities:
  | Kinetic energy                :          76.15507009 Ha        2072.28489380 eV
  | Electrostatic energy          :        -141.54995329 Ha       -3851.77020501 eV
  | Energy correction for multipole
  | error in Hartree potential    :          -0.01002760 Ha          -0.27286481 eV
  | Sum of eigenvalues per atom                           :        -600.38707005 eV
  | Total energy (T->0) per atom                          :       -1037.09712445 eV  <-- do not rely on this value for anything but (periodic) metals
  | Electronic free energy per atom                       :       -1037.09712445 eV

  Self-consistency convergence accuracy:
  | Change of charge/spin density : 0.1299E+00 0.1330E-14
  | Change of sum of eigenvalues  : 0.2701E+02 eV
  | Change of total energy        : 0.3339E+00 eV

  End self-consistency iteration #     2       :  max(cpu_time)    wall_clock(cpu1)
  | Time for this iteration                    :        6.524 s           6.529 s
  | Charge density update                      :        4.017 s           4.016 s
  | Density mixing & preconditioning           :        0.251 s           0.254 s
  | Hartree multipole update                   :        0.002 s           0.002 s
  | Hartree multipole summation                :        0.313 s           0.314 s
  | Integration                                :        1.913 s           1.914 s
  | Solution of K.-S. eqns.                    :        0.028 s           0.028 s
  | Total energy evaluation                    :        0.000 s           0.000 s
------------------------------------------------------------

------------------------------------------------------------
          Begin self-consistency iteration #    3

  Date     :  20220226, Time     :  193719.949
------------------------------------------------------------
  Evaluating new KS density using the density matrix
  Evaluating density matrix
  Evaluating density matrix
  Time summed over all CPUs for getting density from density matrix: real work       30.905 s, elapsed       32.149 s
  Integration grid: deviation in total charge (<rho> - N_e) =   9.510254E-04
  | <rho_up-rho_dn> = N_up-N_dn =     -0.0000; <|rho_up-rho_dn|> =      0.0000
  Pulay mixing of updated and previous charge densities.

  Evaluating partitioned Hartree potential by multipole expansion.
  | Analytical far-field extrapolation by fixed multipoles:
  | Hartree multipole sum: apparent total charge =   0.655736E-03
  Summing up the Hartree potential.
  Time summed over all CPUs for potential: real work        2.395 s, elapsed        2.447 s
  | RMS charge density error from multipole expansion :   0.801136E-02
  | Average real-space part of the electrostatic potential :      0.24279891 eV

  Integrating Hamiltonian matrix: batch-based integration.
  Time summed over all CPUs for integration: real work       14.688 s, elapsed       15.199 s

  Updating Kohn-Sham eigenvalues, eigenvectors, occupation numbers, and Fermi level.
  Solving generalized eigenproblem
  Determining occupation numbers for Kohn-Sham eigenstates.
  | Chemical potential (Fermi level) in eV                 : -.64063286E+01
  | Error in electron count due to remaining E_F inaccuracy: 0.00000000E+00
  | Maximum occupation number of highest empty state:  0.00E+00

  Current spin moment of the entire structure :
  | N = N_up - N_down (sum over all k points):         0.00000
  | S (sum over all k points)                :         0.00000

  What follows are estimated values for band gap, HOMO, LUMO, etc.
  | They are estimated on a discrete k-point grid and not necessarily exact.
  | For converged numbers, create a DOS and/or band structure plot on a denser k-grid.

  Highest occupied state (VBM) at     -6.53515074 eV (relative to internal zero)
  | Occupation number:      1.00000000
  | K-point:      20 at    0.375000    0.250000    0.000000 (in units of recip. lattice)
  | Spin channel:        2

  Lowest unoccupied state (CBM) at    -4.55112640 eV (relative to internal zero)
  | Occupation number:      0.00000000
  | K-point:      20 at    0.375000    0.250000    0.000000 (in units of recip. lattice)
  | Spin channel:        1

  ESTIMATED overall HOMO-LUMO gap:      1.98402434 eV between HOMO at k-point 20 and LUMO at k-point 20
  | This appears to be a direct band gap.
  The gap value is above 0.2 eV. Unless you are using a very sparse k-point grid,
  this system is most likely an insulator or a semiconductor.

  Total energy components:
  | Sum of eigenvalues            :         -44.24549143 Ha       -1203.98107960 eV
  | XC energy correction          :         -10.81619876 Ha        -294.32374339 eV
  | XC potential correction       :          13.89649820 Ha         378.14295571 eV
  | Free-atom electrostatic energy:         -33.32004492 Ha        -906.68455390 eV
  | Hartree energy correction     :          -1.74002635 Ha         -47.34852592 eV
  | van der Waals energy corr.    :           0.00000000 Ha           0.00000000 eV
  | Entropy correction            :           0.00000000 Ha           0.00000000 eV
  | ---------------------------
  | Total energy                  :         -76.22526326 Ha       -2074.19494711 eV
  | Total energy, T -> 0          :         -76.22526326 Ha       -2074.19494711 eV  <-- do not rely on this value for anything but (periodic) metals
  | Electronic free energy        :         -76.22526326 Ha       -2074.19494711 eV

  Derived energy quantities:
  | Kinetic energy                :          75.98106326 Ha        2067.54992712 eV
  | Electrostatic energy          :        -141.39012775 Ha       -3847.42113084 eV
  | Energy correction for multipole
  | error in Hartree potential    :          -0.01119531 Ha          -0.30463982 eV
  | Sum of eigenvalues per atom                           :        -601.99053980 eV
  | Total energy (T->0) per atom                          :       -1037.09747355 eV  <-- do not rely on this value for anything but (periodic) metals
  | Electronic free energy per atom                       :       -1037.09747355 eV

  Self-consistency convergence accuracy:
  | Change of charge/spin density : 0.1680E-01 0.3214E-14
  | Change of sum of eigenvalues  : -.3207E+01 eV
  | Change of total energy        : -.6982E-03 eV

  End self-consistency iteration #     3       :  max(cpu_time)    wall_clock(cpu1)
  | Time for this iteration                    :        6.529 s           6.535 s
  | Charge density update                      :        4.026 s           4.030 s
  | Density mixing & preconditioning           :        0.251 s           0.252 s
  | Hartree multipole update                   :        0.002 s           0.002 s
  | Hartree multipole summation                :        0.314 s           0.314 s
  | Integration                                :        1.907 s           1.907 s
  | Solution of K.-S. eqns.                    :        0.029 s           0.029 s
  | Total energy evaluation                    :        0.000 s           0.001 s
------------------------------------------------------------

------------------------------------------------------------
          Begin self-consistency iteration #    4

  Date     :  20220226, Time     :  193726.487
------------------------------------------------------------
  Evaluating new KS density using the density matrix
  Evaluating density matrix
  Evaluating density matrix
  Time summed over all CPUs for getting density from density matrix: real work       30.842 s, elapsed       32.094 s
  Integration grid: deviation in total charge (<rho> - N_e) =   6.562774E-04
  | <rho_up-rho_dn> = N_up-N_dn =      0.0000; <|rho_up-rho_dn|> =      0.0000
  Pulay mixing of updated and previous charge densities.

  Evaluating partitioned Hartree potential by multipole expansion.
  | Analytical far-field extrapolation by fixed multipoles:
  | Hartree multipole sum: apparent total charge =   0.489768E-03
  Summing up the Hartree potential.
  Time summed over all CPUs for potential: real work        2.393 s, elapsed        2.443 s
  | RMS charge density error from multipole expansion :   0.805086E-02
  | Average real-space part of the electrostatic potential :      0.24407059 eV

  Integrating Hamiltonian matrix: batch-based integration.
  Time summed over all CPUs for integration: real work       14.789 s, elapsed       15.323 s

  Updating Kohn-Sham eigenvalues, eigenvectors, occupation numbers, and Fermi level.
  Solving generalized eigenproblem
  Determining occupation numbers for Kohn-Sham eigenstates.
  | Chemical potential (Fermi level) in eV                 : -.63869119E+01
  | Error in electron count due to remaining E_F inaccuracy: 0.00000000E+00
  | Maximum occupation number of highest empty state:  0.00E+00

  Current spin moment of the entire structure :
  | N = N_up - N_down (sum over all k points):         0.00000
  | S (sum over all k points)                :         0.00000

  What follows are estimated values for band gap, HOMO, LUMO, etc.
  | They are estimated on a discrete k-point grid and not necessarily exact.
  | For converged numbers, create a DOS and/or band structure plot on a denser k-grid.

  Highest occupied state (VBM) at     -6.51411255 eV (relative to internal zero)
  | Occupation number:      1.00000000
  | K-point:      20 at    0.375000    0.250000    0.000000 (in units of recip. lattice)
  | Spin channel:        1

  Lowest unoccupied state (CBM) at    -4.52992111 eV (relative to internal zero)
  | Occupation number:      0.00000000
  | K-point:      20 at    0.375000    0.250000    0.000000 (in units of recip. lattice)
  | Spin channel:        1

  ESTIMATED overall HOMO-LUMO gap:      1.98419143 eV between HOMO at k-point 20 and LUMO at k-point 20
  | This appears to be a direct band gap.
  The gap value is above 0.2 eV. Unless you are using a very sparse k-point grid,
  this system is most likely an insulator or a semiconductor.

  Total energy components:
  | Sum of eigenvalues            :         -44.23173034 Ha       -1203.60662145 eV
  | XC energy correction          :         -10.81747806 Ha        -294.35855488 eV
  | XC potential correction       :          13.89812318 Ha         378.18717374 eV
  | Free-atom electrostatic energy:         -33.32004492 Ha        -906.68455390 eV
  | Hartree energy correction     :          -1.75412764 Ha         -47.73224155 eV
  | van der Waals energy corr.    :           0.00000000 Ha           0.00000000 eV
  | Entropy correction            :           0.00000000 Ha           0.00000000 eV
  | ---------------------------
  | Total energy                  :         -76.22525778 Ha       -2074.19479804 eV
  | Total energy, T -> 0          :         -76.22525778 Ha       -2074.19479804 eV  <-- do not rely on this value for anything but (periodic) metals
  | Electronic free energy        :         -76.22525778 Ha       -2074.19479804 eV

  Derived energy quantities:
  | Kinetic energy                :          75.98610443 Ha        2067.68710434 eV
  | Electrostatic energy          :        -141.39388415 Ha       -3847.52334750 eV
  | Energy correction for multipole
  | error in Hartree potential    :          -0.01126106 Ha          -0.30642896 eV
  | Sum of eigenvalues per atom                           :        -601.80331073 eV
  | Total energy (T->0) per atom                          :       -1037.09739902 eV  <-- do not rely on this value for anything but (periodic) metals
  | Electronic free energy per atom                       :       -1037.09739902 eV

  Self-consistency convergence accuracy:
  | Change of charge/spin density : 0.2190E-02 0.2679E-13
  | Change of sum of eigenvalues  : 0.3745E+00 eV
  | Change of total energy        : 0.1491E-03 eV

  End self-consistency iteration #     4       :  max(cpu_time)    wall_clock(cpu1)
  | Time for this iteration                    :        6.532 s           6.539 s
  | Charge density update                      :        4.021 s           4.024 s
  | Density mixing & preconditioning           :        0.247 s           0.248 s
  | Hartree multipole update                   :        0.002 s           0.002 s
  | Hartree multipole summation                :        0.314 s           0.313 s
  | Integration                                :        1.920 s           1.922 s
  | Solution of K.-S. eqns.                    :        0.029 s           0.028 s
  | Total energy evaluation                    :        0.000 s           0.000 s
------------------------------------------------------------

------------------------------------------------------------
          Begin self-consistency iteration #    5

  Date     :  20220226, Time     :  193733.029
------------------------------------------------------------
  Evaluating new KS density using the density matrix
  Evaluating density matrix
  Evaluating density matrix
  Time summed over all CPUs for getting density from density matrix: real work       30.742 s, elapsed       31.970 s
  Integration grid: deviation in total charge (<rho> - N_e) =   4.903117E-04
  | <rho_up-rho_dn> = N_up-N_dn =     -0.0000; <|rho_up-rho_dn|> =      0.0000
  Pulay mixing of updated and previous charge densities.

  Evaluating partitioned Hartree potential by multipole expansion.
  | Analytical far-field extrapolation by fixed multipoles:
  | Hartree multipole sum: apparent total charge =   0.232050E-04
  Summing up the Hartree potential.
  Time summed over all CPUs for potential: real work        2.395 s, elapsed        2.441 s
  | RMS charge density error from multipole expansion :   0.811963E-02
  | Average real-space part of the electrostatic potential :      0.24550831 eV

  Integrating Hamiltonian matrix: batch-based integration.
  Time summed over all CPUs for integration: real work       14.855 s, elapsed       15.375 s

  Updating Kohn-Sham eigenvalues, eigenvectors, occupation numbers, and Fermi level.
  Solving generalized eigenproblem
  Determining occupation numbers for Kohn-Sham eigenstates.
  | Chemical potential (Fermi level) in eV                 : -.63675611E+01
  | Error in electron count due to remaining E_F inaccuracy: 0.00000000E+00
  | Maximum occupation number of highest empty state:  0.00E+00

  Current spin moment of the entire structure :
  | N = N_up - N_down (sum over all k points):         0.00000
  | S (sum over all k points)                :         0.00000

  What follows are estimated values for band gap, HOMO, LUMO, etc.
  | They are estimated on a discrete k-point grid and not necessarily exact.
  | For converged numbers, create a DOS and/or band structure plot on a denser k-grid.

  Highest occupied state (VBM) at     -6.49217643 eV (relative to internal zero)
  | Occupation number:      1.00000000
  | K-point:      20 at    0.375000    0.250000    0.000000 (in units of recip. lattice)
  | Spin channel:        1

  Lowest unoccupied state (CBM) at    -4.50784591 eV (relative to internal zero)
  | Occupation number:      0.00000000
  | K-point:      20 at    0.375000    0.250000    0.000000 (in units of recip. lattice)
  | Spin channel:        2

  ESTIMATED overall HOMO-LUMO gap:      1.98433052 eV between HOMO at k-point 20 and LUMO at k-point 20
  | This appears to be a direct band gap.
  The gap value is above 0.2 eV. Unless you are using a very sparse k-point grid,
  this system is most likely an insulator or a semiconductor.

  Total energy components:
  | Sum of eigenvalues            :         -44.21943374 Ha       -1203.27201388 eV
  | XC energy correction          :         -10.81873062 Ha        -294.39263878 eV
  | XC potential correction       :          13.89970282 Ha         378.23015791 eV
  | Free-atom electrostatic energy:         -33.32004492 Ha        -906.68455390 eV
  | Hartree energy correction     :          -1.76675206 Ha         -48.07576972 eV
  | van der Waals energy corr.    :           0.00000000 Ha           0.00000000 eV
  | Entropy correction            :           0.00000000 Ha           0.00000000 eV
  | ---------------------------
  | Total energy                  :         -76.22525853 Ha       -2074.19481837 eV
  | Total energy, T -> 0          :         -76.22525853 Ha       -2074.19481837 eV  <-- do not rely on this value for anything but (periodic) metals
  | Electronic free energy        :         -76.22525853 Ha       -2074.19481837 eV

  Derived energy quantities:
  | Kinetic energy                :          75.99078342 Ha        2067.81442602 eV
  | Electrostatic energy          :        -141.39731132 Ha       -3847.61660561 eV
  | Energy correction for multipole
  | error in Hartree potential    :          -0.01138242 Ha          -0.30973138 eV
  | Sum of eigenvalues per atom                           :        -601.63600694 eV
  | Total energy (T->0) per atom                          :       -1037.09740918 eV  <-- do not rely on this value for anything but (periodic) metals
  | Electronic free energy per atom                       :       -1037.09740918 eV

  Self-consistency convergence accuracy:
  | Change of charge/spin density : 0.1249E-02 0.1251E-12
  | Change of sum of eigenvalues  : 0.3346E+00 eV
  | Change of total energy        : -.2033E-04 eV

  End self-consistency iteration #     5       :  max(cpu_time)    wall_clock(cpu1)
  | Time for this iteration                    :        6.527 s           6.528 s
  | Charge density update                      :        4.009 s           4.008 s
  | Density mixing & preconditioning           :        0.246 s           0.246 s
  | Hartree multipole update                   :        0.002 s           0.002 s
  | Hartree multipole summation                :        0.314 s           0.314 s
  | Integration                                :        1.927 s           1.928 s
  | Solution of K.-S. eqns.                    :        0.029 s           0.029 s
  | Total energy evaluation                    :        0.000 s           0.001 s
------------------------------------------------------------

------------------------------------------------------------
          Begin self-consistency iteration #    6

  Date     :  20220226, Time     :  193739.559
------------------------------------------------------------
  Evaluating new KS density using the density matrix
  Evaluating density matrix
  Evaluating density matrix
  Time summed over all CPUs for getting density from density matrix: real work       30.399 s, elapsed       31.771 s
  Integration grid: deviation in total charge (<rho> - N_e) =   2.374872E-05
  | <rho_up-rho_dn> = N_up-N_dn =     -0.0000; <|rho_up-rho_dn|> =      0.0000
  Pulay mixing of updated and previous charge densities.

  Evaluating partitioned Hartree potential by multipole expansion.
  | Analytical far-field extrapolation by fixed multipoles:
  | Hartree multipole sum: apparent total charge =   0.749493E-05
  Summing up the Hartree potential.
  Time summed over all CPUs for potential: real work        2.394 s, elapsed        2.443 s
  | RMS charge density error from multipole expansion :   0.812002E-02
  | Average real-space part of the electrostatic potential :      0.24558753 eV

  Integrating Hamiltonian matrix: batch-based integration.
  Time summed over all CPUs for integration: real work       14.767 s, elapsed       15.311 s

  Updating Kohn-Sham eigenvalues, eigenvectors, occupation numbers, and Fermi level.
  Solving generalized eigenproblem
  Determining occupation numbers for Kohn-Sham eigenstates.
  | Chemical potential (Fermi level) in eV                 : -.63676591E+01
  | Error in electron count due to remaining E_F inaccuracy: 0.00000000E+00
  | Maximum occupation number of highest empty state:  0.00E+00

  Current spin moment of the entire structure :
  | N = N_up - N_down (sum over all k points):         0.00000
  | S (sum over all k points)                :         0.00000

  What follows are estimated values for band gap, HOMO, LUMO, etc.
  | They are estimated on a discrete k-point grid and not necessarily exact.
  | For converged numbers, create a DOS and/or band structure plot on a denser k-grid.

  Highest occupied state (VBM) at     -6.49214673 eV (relative to internal zero)
  | Occupation number:      1.00000000
  | K-point:      20 at    0.375000    0.250000    0.000000 (in units of recip. lattice)
  | Spin channel:        1

  Lowest unoccupied state (CBM) at    -4.50782160 eV (relative to internal zero)
  | Occupation number:      0.00000000
  | K-point:      20 at    0.375000    0.250000    0.000000 (in units of recip. lattice)
  | Spin channel:        2

  ESTIMATED overall HOMO-LUMO gap:      1.98432513 eV between HOMO at k-point 20 and LUMO at k-point 20
  | This appears to be a direct band gap.
  The gap value is above 0.2 eV. Unless you are using a very sparse k-point grid,
  this system is most likely an insulator or a semiconductor.

  Total energy components:
  | Sum of eigenvalues            :         -44.21946050 Ha       -1203.27274218 eV
  | XC energy correction          :         -10.81874306 Ha        -294.39297717 eV
  | XC potential correction       :          13.89971826 Ha         378.23057808 eV
  | Free-atom electrostatic energy:         -33.32004492 Ha        -906.68455390 eV
  | Hartree energy correction     :          -1.76672846 Ha         -48.07512747 eV
  | van der Waals energy corr.    :           0.00000000 Ha           0.00000000 eV
  | Entropy correction            :           0.00000000 Ha           0.00000000 eV
  | ---------------------------
  | Total energy                  :         -76.22525868 Ha       -2074.19482264 eV
  | Total energy, T -> 0          :         -76.22525868 Ha       -2074.19482264 eV  <-- do not rely on this value for anything but (periodic) metals
  | Electronic free energy        :         -76.22525868 Ha       -2074.19482264 eV

  Derived energy quantities:
  | Kinetic energy                :          75.99085327 Ha        2067.81632681 eV
  | Electrostatic energy          :        -141.39736889 Ha       -3847.61817228 eV
  | Energy correction for multipole
  | error in Hartree potential    :          -0.01138496 Ha          -0.30980043 eV
  | Sum of eigenvalues per atom                           :        -601.63637109 eV
  | Total energy (T->0) per atom                          :       -1037.09741132 eV  <-- do not rely on this value for anything but (periodic) metals
  | Electronic free energy per atom                       :       -1037.09741132 eV

  Self-consistency convergence accuracy:
  | Change of charge/spin density : 0.5978E-04 0.2366E-11
  | Change of sum of eigenvalues  : -.7283E-03 eV
  | Change of total energy        : -.4268E-05 eV

  End self-consistency iteration #     6       :  max(cpu_time)    wall_clock(cpu1)
  | Time for this iteration                    :        6.470 s           6.476 s
  | Charge density update                      :        3.980 s           3.983 s
  | Density mixing & preconditioning           :        0.221 s           0.225 s
  | Hartree multipole update                   :        0.003 s           0.004 s
  | Hartree multipole summation                :        0.314 s           0.314 s
  | Integration                                :        1.919 s           1.919 s
  | Solution of K.-S. eqns.                    :        0.029 s           0.029 s
  | Total energy evaluation                    :        0.000 s           0.000 s
------------------------------------------------------------

------------------------------------------------------------
          Begin self-consistency iteration #    7

  Date     :  20220226, Time     :  193746.039
------------------------------------------------------------
  Evaluating new KS density using the density matrix
  Evaluating density matrix
  Evaluating density matrix
  Time summed over all CPUs for getting density from density matrix: real work       31.007 s, elapsed       32.302 s
  Integration grid: deviation in total charge (<rho> - N_e) =   8.038596E-06
  | <rho_up-rho_dn> = N_up-N_dn =     -0.0000; <|rho_up-rho_dn|> =      0.0000
  Pulay mixing of updated and previous charge densities.

  Evaluating partitioned Hartree potential by multipole expansion.
  | Analytical far-field extrapolation by fixed multipoles:
  | Hartree multipole sum: apparent total charge =   0.787136E-06
  Summing up the Hartree potential.
  Time summed over all CPUs for potential: real work        2.391 s, elapsed        2.436 s
  | RMS charge density error from multipole expansion :   0.812018E-02
  | Average real-space part of the electrostatic potential :      0.24562086 eV

  Integrating Hamiltonian matrix: batch-based integration.
  Time summed over all CPUs for integration: real work       14.358 s, elapsed       14.981 s

  Updating Kohn-Sham eigenvalues, eigenvectors, occupation numbers, and Fermi level.
  Solving generalized eigenproblem
  Determining occupation numbers for Kohn-Sham eigenstates.
  | Chemical potential (Fermi level) in eV                 : -.63676910E+01
  | Error in electron count due to remaining E_F inaccuracy: 0.00000000E+00
  | Maximum occupation number of highest empty state:  0.00E+00

  Current spin moment of the entire structure :
  | N = N_up - N_down (sum over all k points):         0.00000
  | S (sum over all k points)                :         0.00000

  What follows are estimated values for band gap, HOMO, LUMO, etc.
  | They are estimated on a discrete k-point grid and not necessarily exact.
  | For converged numbers, create a DOS and/or band structure plot on a denser k-grid.

  Highest occupied state (VBM) at     -6.49212453 eV (relative to internal zero)
  | Occupation number:      1.00000000
  | K-point:      20 at    0.375000    0.250000    0.000000 (in units of recip. lattice)
  | Spin channel:        1

  Lowest unoccupied state (CBM) at    -4.50779783 eV (relative to internal zero)
  | Occupation number:      0.00000000
  | K-point:      20 at    0.375000    0.250000    0.000000 (in units of recip. lattice)
  | Spin channel:        2

  ESTIMATED overall HOMO-LUMO gap:      1.98432670 eV between HOMO at k-point 20 and LUMO at k-point 20
  | This appears to be a direct band gap.
  The gap value is above 0.2 eV. Unless you are using a very sparse k-point grid,
  this system is most likely an insulator or a semiconductor.

  Total energy components:
  | Sum of eigenvalues            :         -44.21946839 Ha       -1203.27295679 eV
  | XC energy correction          :         -10.81874841 Ha        -294.39312286 eV
  | XC potential correction       :          13.89972493 Ha         378.23075943 eV
  | Free-atom electrostatic energy:         -33.32004492 Ha        -906.68455390 eV
  | Hartree energy correction     :          -1.76672173 Ha         -48.07494437 eV
  | van der Waals energy corr.    :           0.00000000 Ha           0.00000000 eV
  | Entropy correction            :           0.00000000 Ha           0.00000000 eV
  | ---------------------------
  | Total energy                  :         -76.22525853 Ha       -2074.19481848 eV
  | Total energy, T -> 0          :         -76.22525853 Ha       -2074.19481848 eV  <-- do not rely on this value for anything but (periodic) metals
  | Electronic free energy        :         -76.22525853 Ha       -2074.19481848 eV

  Derived energy quantities:
  | Kinetic energy                :          75.99088263 Ha        2067.81712565 eV
  | Electrostatic energy          :        -141.39739274 Ha       -3847.61882128 eV
  | Energy correction for multipole
  | error in Hartree potential    :          -0.01138600 Ha          -0.30982877 eV
  | Sum of eigenvalues per atom                           :        -601.63647839 eV
  | Total energy (T->0) per atom                          :       -1037.09740924 eV  <-- do not rely on this value for anything but (periodic) metals
  | Electronic free energy per atom                       :       -1037.09740924 eV

  Self-consistency convergence accuracy:
  | Change of charge/spin density : 0.1449E-02 0.2192E-10
  | Change of sum of eigenvalues  : -.2146E-03 eV
  | Change of total energy        : 0.4153E-05 eV

  End self-consistency iteration #     7       :  max(cpu_time)    wall_clock(cpu1)
  | Time for this iteration                    :        6.489 s           6.495 s
  | Charge density update                      :        4.045 s           4.049 s
  | Density mixing & preconditioning           :        0.222 s           0.222 s
  | Hartree multipole update                   :        0.002 s           0.002 s
  | Hartree multipole summation                :        0.313 s           0.313 s
  | Integration                                :        1.878 s           1.879 s
  | Solution of K.-S. eqns.                    :        0.028 s           0.029 s
  | Total energy evaluation                    :        0.000 s           0.001 s
------------------------------------------------------------

------------------------------------------------------------
          Begin self-consistency iteration #    8

  Date     :  20220226, Time     :  193752.539
------------------------------------------------------------
  Evaluating new KS density using the density matrix
  Evaluating density matrix
  Evaluating density matrix
  Time summed over all CPUs for getting density from density matrix: real work       30.956 s, elapsed       32.334 s
  Integration grid: deviation in total charge (<rho> - N_e) =   1.330775E-06
  | <rho_up-rho_dn> = N_up-N_dn =      0.0000; <|rho_up-rho_dn|> =      0.0000
  Pulay mixing of updated and previous charge densities.

  Evaluating partitioned Hartree potential by multipole expansion.
  | Analytical far-field extrapolation by fixed multipoles:
  | Hartree multipole sum: apparent total charge =  -0.161141E-05
  Summing up the Hartree potential.
  Time summed over all CPUs for potential: real work        2.394 s, elapsed        2.441 s
  | RMS charge density error from multipole expansion :   0.812041E-02
  | Average real-space part of the electrostatic potential :      0.24563614 eV

  Integrating Hamiltonian matrix: batch-based integration.
  Time summed over all CPUs for integration: real work       14.830 s, elapsed       15.379 s

  Updating Kohn-Sham eigenvalues, eigenvectors, occupation numbers, and Fermi level.
  Solving generalized eigenproblem
  Determining occupation numbers for Kohn-Sham eigenstates.
  | Chemical potential (Fermi level) in eV                 : -.63676316E+01
  | Error in electron count due to remaining E_F inaccuracy: 0.00000000E+00
  | Maximum occupation number of highest empty state:  0.00E+00

  Current spin moment of the entire structure :
  | N = N_up - N_down (sum over all k points):         0.00000
  | S (sum over all k points)                :         0.00000

  What follows are estimated values for band gap, HOMO, LUMO, etc.
  | They are estimated on a discrete k-point grid and not necessarily exact.
  | For converged numbers, create a DOS and/or band structure plot on a denser k-grid.

  Highest occupied state (VBM) at     -6.49203651 eV (relative to internal zero)
  | Occupation number:      1.00000000
  | K-point:      20 at    0.375000    0.250000    0.000000 (in units of recip. lattice)
  | Spin channel:        1

  Lowest unoccupied state (CBM) at    -4.50770938 eV (relative to internal zero)
  | Occupation number:      0.00000000
  | K-point:      20 at    0.375000    0.250000    0.000000 (in units of recip. lattice)
  | Spin channel:        2

  ESTIMATED overall HOMO-LUMO gap:      1.98432713 eV between HOMO at k-point 20 and LUMO at k-point 20
  | This appears to be a direct band gap.
  The gap value is above 0.2 eV. Unless you are using a very sparse k-point grid,
  this system is most likely an insulator or a semiconductor.

  Total energy components:
  | Sum of eigenvalues            :         -44.21941242 Ha       -1203.27143370 eV
  | XC energy correction          :         -10.81875536 Ha        -294.39331202 eV
  | XC potential correction       :          13.89973374 Ha         378.23099925 eV
  | Free-atom electrostatic energy:         -33.32004492 Ha        -906.68455390 eV
  | Hartree energy correction     :          -1.76677956 Ha         -48.07651803 eV
  | van der Waals energy corr.    :           0.00000000 Ha           0.00000000 eV
  | Entropy correction            :           0.00000000 Ha           0.00000000 eV
  | ---------------------------
  | Total energy                  :         -76.22525853 Ha       -2074.19481841 eV
  | Total energy, T -> 0          :         -76.22525853 Ha       -2074.19481841 eV  <-- do not rely on this value for anything but (periodic) metals
  | Electronic free energy        :         -76.22525853 Ha       -2074.19481841 eV

  Derived energy quantities:
  | Kinetic energy                :          75.99090297 Ha        2067.81767926 eV
  | Electrostatic energy          :        -141.39740614 Ha       -3847.61918564 eV
  | Energy correction for multipole
  | error in Hartree potential    :          -0.01138667 Ha          -0.30984693 eV
  | Sum of eigenvalues per atom                           :        -601.63571685 eV
  | Total energy (T->0) per atom                          :       -1037.09740920 eV  <-- do not rely on this value for anything but (periodic) metals
  | Electronic free energy per atom                       :       -1037.09740920 eV

  Self-consistency convergence accuracy:
  | Change of charge/spin density : 0.7792E-05 0.3440E-10
  | Change of sum of eigenvalues  : 0.1523E-02 eV
  | Change of total energy        : 0.7281E-07 eV

  End self-consistency iteration #     8       :  max(cpu_time)    wall_clock(cpu1)
  | Time for this iteration                    :        6.548 s           6.549 s
  | Charge density update                      :        4.053 s           4.053 s
  | Density mixing & preconditioning           :        0.220 s           0.220 s
  | Hartree multipole update                   :        0.002 s           0.002 s
  | Hartree multipole summation                :        0.314 s           0.314 s
  | Integration                                :        1.929 s           1.929 s
  | Solution of K.-S. eqns.                    :        0.029 s           0.029 s
  | Total energy evaluation                    :        0.000 s           0.001 s
------------------------------------------------------------

------------------------------------------------------------
          Begin self-consistency iteration #    9

  Date     :  20220226, Time     :  193759.090
------------------------------------------------------------
  Evaluating new KS density using the density matrix
  Evaluating density matrix
  Evaluating density matrix
  Time summed over all CPUs for getting density from density matrix: real work       30.968 s, elapsed       32.192 s
  Integration grid: deviation in total charge (<rho> - N_e) =  -1.067763E-06
  | <rho_up-rho_dn> = N_up-N_dn =      0.0000; <|rho_up-rho_dn|> =      0.0000
  Pulay mixing of updated and previous charge densities.

  Evaluating partitioned Hartree potential by multipole expansion.
  | Analytical far-field extrapolation by fixed multipoles:
  | Hartree multipole sum: apparent total charge =  -0.511436E-06
  Summing up the Hartree potential.
  Time summed over all CPUs for potential: real work        2.399 s, elapsed        2.445 s
  | RMS charge density error from multipole expansion :   0.812019E-02
  | Average real-space part of the electrostatic potential :      0.24562715 eV

  Integrating Hamiltonian matrix: batch-based integration.
  Time summed over all CPUs for integration: real work       14.728 s, elapsed       15.235 s

  Updating Kohn-Sham eigenvalues, eigenvectors, occupation numbers, and Fermi level.
  Solving generalized eigenproblem
  Determining occupation numbers for Kohn-Sham eigenstates.
  | Chemical potential (Fermi level) in eV                 : -.63677044E+01
  | Error in electron count due to remaining E_F inaccuracy: 0.00000000E+00
  | Maximum occupation number of highest empty state:  0.00E+00

  Current spin moment of the entire structure :
  | N = N_up - N_down (sum over all k points):         0.00000
  | S (sum over all k points)                :         0.00000

[...]
  | Spin channel:        2

  Lowest unoccupied state (CBM) at    -4.50779130 eV (relative to internal zero)
  | Occupation number:      0.00000000
  | K-point:      20 at    0.375000    0.250000    0.000000 (in units of recip. lattice)
  | Spin channel:        2

  ESTIMATED overall HOMO-LUMO gap:      1.98432653 eV between HOMO at k-point 20 and LUMO at k-point 20
  | This appears to be a direct band gap.
  The gap value is above 0.2 eV. Unless you are using a very sparse k-point grid,
  this system is most likely an insulator or a semiconductor.

  Total energy components:
  | Sum of eigenvalues            :         -44.21945802 Ha       -1203.27267464 eV
  | XC energy correction          :         -10.81875104 Ha        -294.39319423 eV
  | XC potential correction       :          13.89972822 Ha         378.23084898 eV
  | Free-atom electrostatic energy:         -33.32004492 Ha        -906.68455390 eV
  | Hartree energy correction     :          -1.76673276 Ha         -48.07524442 eV
  | van der Waals energy corr.    :           0.00000000 Ha           0.00000000 eV
  | Entropy correction            :           0.00000000 Ha           0.00000000 eV
  | ---------------------------
  | Total energy                  :         -76.22525852 Ha       -2074.19481821 eV
  | Total energy, T -> 0          :         -76.22525852 Ha       -2074.19481821 eV  <-- do not rely on this value for anything but (periodic) metals
  | Electronic free energy        :         -76.22525852 Ha       -2074.19481821 eV

  Derived energy quantities:
  | Kinetic energy                :          75.99088989 Ha        2067.81732317 eV
  | Electrostatic energy          :        -141.39739737 Ha       -3847.61894714 eV
  | Energy correction for multipole
  | error in Hartree potential    :          -0.01138631 Ha          -0.30983724 eV
  | Sum of eigenvalues per atom                           :        -601.63633732 eV
  | Total energy (T->0) per atom                          :       -1037.09740911 eV  <-- do not rely on this value for anything but (periodic) metals
  | Electronic free energy per atom                       :       -1037.09740911 eV

  Self-consistency convergence accuracy:
  | Change of charge/spin density : 0.1067E-06 0.3261E-08
  | Change of sum of eigenvalues  : -.4225E-04 eV
  | Change of total energy        : 0.3035E-08 eV

  End self-consistency iteration #    10       :  max(cpu_time)    wall_clock(cpu1)
  | Time for this iteration                    :        6.538 s           6.544 s
  | Charge density update                      :        4.066 s           4.066 s
  | Density mixing & preconditioning           :        0.221 s           0.221 s
  | Hartree multipole update                   :        0.002 s           0.002 s
  | Hartree multipole summation                :        0.315 s           0.315 s
  | Integration                                :        1.909 s           1.910 s
  | Solution of K.-S. eqns.                    :        0.029 s           0.029 s
  | Total energy evaluation                    :        0.000 s           0.001 s
------------------------------------------------------------

------------------------------------------------------------
          Begin self-consistency iteration #   11

  Date     :  20220226, Time     :  193812.158
------------------------------------------------------------
  Evaluating new KS density using the density matrix
  Evaluating density matrix
  Evaluating density matrix
  Time summed over all CPUs for getting density from density matrix: real work       30.921 s, elapsed       32.204 s
  Integration grid: deviation in total charge (<rho> - N_e) =   3.225637E-09
  | <rho_up-rho_dn> = N_up-N_dn =      0.0000; <|rho_up-rho_dn|> =      0.0000
  Pulay mixing of updated and previous charge densities.

  Evaluating partitioned Hartree potential by multipole expansion.
  | Analytical far-field extrapolation by fixed multipoles:
  | Hartree multipole sum: apparent total charge =  -0.538925E-06
  Summing up the Hartree potential.
  Time summed over all CPUs for potential: real work        2.392 s, elapsed        2.440 s
  | RMS charge density error from multipole expansion :   0.812019E-02
  | Average real-space part of the electrostatic potential :      0.24562730 eV

  Integrating Hamiltonian matrix: batch-based integration.
  Time summed over all CPUs for integration: real work       14.290 s, elapsed       14.837 s

  Updating Kohn-Sham eigenvalues, eigenvectors, occupation numbers, and Fermi level.
  Solving generalized eigenproblem
  Determining occupation numbers for Kohn-Sham eigenstates.
  | Chemical potential (Fermi level) in eV                 : -.63677060E+01
  | Error in electron count due to remaining E_F inaccuracy: 0.00000000E+00
  | Maximum occupation number of highest empty state:  0.00E+00

  Current spin moment of the entire structure :
  | N = N_up - N_down (sum over all k points):         0.00000
  | S (sum over all k points)                :         0.00000

  What follows are estimated values for band gap, HOMO, LUMO, etc.
  | They are estimated on a discrete k-point grid and not necessarily exact.
  | For converged numbers, create a DOS and/or band structure plot on a denser k-grid.

  Highest occupied state (VBM) at     -6.49211752 eV (relative to internal zero)
  | Occupation number:      1.00000000
  | K-point:      20 at    0.375000    0.250000    0.000000 (in units of recip. lattice)
  | Spin channel:        1

  Lowest unoccupied state (CBM) at    -4.50779099 eV (relative to internal zero)
  | Occupation number:      0.00000000
  | K-point:      20 at    0.375000    0.250000    0.000000 (in units of recip. lattice)
  | Spin channel:        2

  ESTIMATED overall HOMO-LUMO gap:      1.98432653 eV between HOMO at k-point 20 and LUMO at k-point 20
  | This appears to be a direct band gap.
  The gap value is above 0.2 eV. Unless you are using a very sparse k-point grid,
  this system is most likely an insulator or a semiconductor.

  Total energy components:
  | Sum of eigenvalues            :         -44.21945785 Ha       -1203.27266990 eV
  | XC energy correction          :         -10.81875105 Ha        -294.39319456 eV
  | XC potential correction       :          13.89972823 Ha         378.23084940 eV
  | Free-atom electrostatic energy:         -33.32004492 Ha        -906.68455390 eV
  | Hartree energy correction     :          -1.76673294 Ha         -48.07524925 eV
  | van der Waals energy corr.    :           0.00000000 Ha           0.00000000 eV
  | Entropy correction            :           0.00000000 Ha           0.00000000 eV
  | ---------------------------
  | Total energy                  :         -76.22525852 Ha       -2074.19481821 eV
  | Total energy, T -> 0          :         -76.22525852 Ha       -2074.19481821 eV  <-- do not rely on this value for anything but (periodic) metals
  | Electronic free energy        :         -76.22525852 Ha       -2074.19481821 eV

  Derived energy quantities:
  | Kinetic energy                :          75.99088991 Ha        2067.81732389 eV
  | Electrostatic energy          :        -141.39739738 Ha       -3847.61894754 eV
  | Energy correction for multipole
  | error in Hartree potential    :          -0.01138631 Ha          -0.30983727 eV
  | Sum of eigenvalues per atom                           :        -601.63633495 eV
  | Total energy (T->0) per atom                          :       -1037.09740911 eV  <-- do not rely on this value for anything but (periodic) metals
  | Electronic free energy per atom                       :       -1037.09740911 eV

  Self-consistency convergence accuracy:
  | Change of charge/spin density : 0.2493E-07 0.4498E-07
  | Change of sum of eigenvalues  : 0.4733E-05 eV
  | Change of total energy        : -.4385E-09 eV

  Preliminary charge convergence reached. Turning off preconditioner.

  Writing Kohn-Sham eigenvalues.

  Spin-up eigenvalues:
  K-point:       1 at    0.000000    0.000000    0.000000 (in units of recip. lattice)

  State    Occupation    Eigenvalue [Ha]    Eigenvalue [eV]
      1       1.00000          -9.979045         -271.54362
      2       1.00000          -9.978082         -271.51743
      3       1.00000          -0.920447          -25.04663
      4       1.00000          -0.482512          -13.12983
      5       1.00000          -0.313187           -8.52225
      6       1.00000          -0.313184           -8.52217
      7       0.00000           0.020124            0.54760
      8       0.00000           0.068116            1.85353
      9       0.00000           0.106462            2.89698
     10       0.00000           0.106468            2.89715
     11       0.00000           0.222763            6.06169

  Spin-down eigenvalues:
  K-point:       1 at    0.000000    0.000000    0.000000 (in units of recip. lattice)

  State    Occupation    Eigenvalue [Ha]    Eigenvalue [eV]
      1       1.00000          -9.979045         -271.54362
      2       1.00000          -9.978082         -271.51743
      3       1.00000          -0.920447          -25.04663
      4       1.00000          -0.482512          -13.12983
      5       1.00000          -0.313187           -8.52225
      6       1.00000          -0.313184           -8.52217
      7       0.00000           0.020124            0.54760
      8       0.00000           0.068116            1.85353
      9       0.00000           0.106462            2.89698
     10       0.00000           0.106468            2.89715
     11       0.00000           0.222763            6.06169

  Current spin moment of the entire structure :
  | N = N_up - N_down (sum over all k points):         0.00000
  | S (sum over all k points)                :         0.00000

  What follows are estimated values for band gap, HOMO, LUMO, etc.
  | They are estimated on a discrete k-point grid and not necessarily exact.
  | For converged numbers, create a DOS and/or band structure plot on a denser k-grid.

  Highest occupied state (VBM) at     -6.49211752 eV (relative to internal zero)
  | Occupation number:      1.00000000
  | K-point:      20 at    0.375000    0.250000    0.000000 (in units of recip. lattice)
  | Spin channel:        1

  Lowest unoccupied state (CBM) at    -4.50779099 eV (relative to internal zero)
  | Occupation number:      0.00000000
  | K-point:      20 at    0.375000    0.250000    0.000000 (in units of recip. lattice)
  | Spin channel:        2

  ESTIMATED overall HOMO-LUMO gap:      1.98432653 eV between HOMO at k-point 20 and LUMO at k-point 20
  | This appears to be a direct band gap.
  The gap value is above 0.2 eV. Unless you are using a very sparse k-point grid,
  this system is most likely an insulator or a semiconductor.

  Self-consistency cycle converged.

  End self-consistency iteration #    11       :  max(cpu_time)    wall_clock(cpu1)
  | Time for this iteration                    :        6.466 s           6.468 s
  | Charge density update                      :        4.038 s           4.036 s
  | Density mixing                             :        0.225 s           0.225 s
  | Hartree multipole update                   :        0.002 s           0.001 s
  | Hartree multipole summation                :        0.314 s           0.314 s
  | Integration                                :        1.860 s           1.861 s
  | Solution of K.-S. eqns.                    :        0.028 s           0.028 s
  | Total energy evaluation                    :        0.000 s           0.001 s
------------------------------------------------------------
  Obtaining max. number of non-zero basis functions in each batch .
  Evaluating KS electron density on previously omitted grid points, using the density matrix.
  Evaluating density matrix
  Evaluating density matrix
  Evaluating non-empirical van der Waals correction (Tkatchenko/Scheffler 2009).
  Performing Hirshfeld analysis of fragment charges and moments.
  ----------------------------------------------------------------------
  | Atom     1: C
  |   Hirshfeld charge        :     -0.00003338
  |   Free atom volume        :     38.37861207
  |   Hirshfeld volume        :     32.34126168
  |   Hirshfeld spin moment   :     -0.00000000
  |   Hirshfeld dipole vector :     -0.00004854      -0.00000015       0.00000000
  |   Hirshfeld dipole moment :      0.00004854
  |   Hirshfeld second moments:      0.08562045      -0.00000029      -0.00000000
  |                                 -0.00000029       0.08544103      -0.00000000
  |                                 -0.00000000      -0.00000000       0.25119391
  ----------------------------------------------------------------------
  | Atom     2: C
  |   Hirshfeld charge        :     -0.00003338
  |   Free atom volume        :     38.37861207
  |   Hirshfeld volume        :     32.34126168
  |   Hirshfeld spin moment   :     -0.00000000
  |   Hirshfeld dipole vector :      0.00004854       0.00000015       0.00000000
  |   Hirshfeld dipole moment :      0.00004854
  |   Hirshfeld second moments:      0.08562045      -0.00000029       0.00000000
  |                                 -0.00000029       0.08544103      -0.00000000
  |                                  0.00000000      -0.00000000       0.25119391
  ----------------------------------------------------------------------

  Converging periodic supercell size for vdw calculation.

  Total energy components:
  | Sum of eigenvalues            :         -44.21945785 Ha       -1203.27266990 eV
  | XC energy correction          :         -10.81875105 Ha        -294.39319456 eV
  | XC potential correction       :          13.89972823 Ha         378.23084940 eV
  | Free-atom electrostatic energy:         -33.32004492 Ha        -906.68455390 eV
  | Hartree energy correction     :          -1.76673294 Ha         -48.07524925 eV
  | van der Waals energy corr.    :          -0.00381822 Ha          -0.10389915 eV
  | Entropy correction            :           0.00000000 Ha           0.00000000 eV
  | ---------------------------
  | Total energy                  :         -76.22907674 Ha       -2074.29871736 eV
  | Total energy, T -> 0          :         -76.22907674 Ha       -2074.29871736 eV  <-- do not rely on this value for anything but (periodic) metals
  | Electronic free energy        :         -76.22907674 Ha       -2074.29871736 eV

  Derived energy quantities:
  | Kinetic energy                :          75.99088991 Ha        2067.81732389 eV
  | Electrostatic energy          :        -141.39739738 Ha       -3847.61894754 eV
  | Energy correction for multipole
  | error in Hartree potential    :          -0.01138631 Ha          -0.30983727 eV
  | Sum of eigenvalues per atom                           :        -601.63633495 eV
  | Total energy (T->0) per atom                          :       -1037.14935868 eV  <-- do not rely on this value for anything but (periodic) metals
  | Electronic free energy per atom                       :       -1037.14935868 eV
  Timings for VdW correction (Tkatchenko-Scheffler 2009 or later):
  | CPU time:        1.934 s, Wall clock time:        1.936 s.

  Energy and forces in a compact form:
  | Total energy uncorrected      :         -0.207429871735863E+04 eV
  | Total energy corrected        :         -0.207429871735863E+04 eV  <-- do not rely on this value for anything but (periodic) metals
  | Electronic free energy        :         -0.207429871735863E+04 eV

  ------------------------------------ 
  Start decomposition of the XC Energy 
  ------------------------------------ 
  Hartree-Fock part   :          0.000000000 Ha              0.000000000 eV
  ------------------------------------ 
  X Energy            :        -10.398878875 Ha           -282.967891426 eV
  C Energy GGA        :         -0.419872173 Ha            -11.425303135 eV
  Total XC Energy     :        -10.818751047 Ha           -294.393194561 eV
  LDA X and C from self-consistent density 
  X Energy LDA        :         -9.434426645 Ha           -256.723810981 eV
  C Energy LDA        :         -0.796148160 Ha            -21.664293689 eV
  ------------------------------------ 
  End decomposition of the XC Energy 
  ------------------------------------ 
  Post-scf processing of Kohn-Sham eigenvalues on a denser k-point grid.
  | Using dos_kgrid_factors to calculate post-scf total density of states.
  | Electron chemical potential:    -6.367705980034 eV.
  Integrating Hamiltonian matrix: batch-based integration.
  Time summed over all CPUs for integration: real work       14.840 s, elapsed       15.372 s
  Processing batch of k-points:     1     1     1
  Processing batch of k-points:     1     1     2
  | writing perturbative DOS (shifted by electron chemical potential) to file KS_dos_total.dat
  | writing perturbative DOS (raw data) to file KS_dos_total_raw.dat

------------------------------------------------------------------------------
  Final output of selected total energy values:

  The following output summarizes some interesting total energy values
  at the end of a run (AFTER all relaxation, molecular dynamics, etc.).

  | Total energy of the DFT / Hartree-Fock s.c.f. calculation      :          -2074.298717359 eV
  | Final zero-broadening corrected energy (caution - metals only) :          -2074.298717359 eV
  | For reference only, the value of 1 Hartree used in FHI-aims is :             27.211384500 eV

  Before relying on these values, please be sure to understand exactly which
  total energy value is referred to by a given number. Different objects may
  all carry the same name 'total energy'. Definitions:

  Total energy of the DFT / Hartree-Fock s.c.f. calculation:
  | Note that this energy does not include ANY quantities calculated after the
  | s.c.f. cycle, in particular not ANY RPA, MP2, etc. many-body perturbation terms.

  Final zero-broadening corrected energy:
  | For metallic systems only, a broadening of the occupation numbers at the Fermi
  | level can be extrapolated back to zero broadening by an electron-gas inspired
  | formula. For all systems that are not real metals, this value can be
  | meaningless and should be avoided.

------------------------------------------------------------------------------

------------------------------------------------------------
          Leaving FHI-aims.
          Date     :  20220226, Time     :  193822.757

          Computational steps:
          | Number of self-consistency cycles          :           11

          Detailed time accounting                     :  max(cpu_time)    wall_clock(cpu1)
          | Total time                                 :       79.403 s          79.672 s
          | Preparation time                           :        0.180 s           0.184 s
          | Grid partitioning                          :        0.058 s           0.063 s
          | Preloading free-atom quantities on grid    :        0.009 s           0.009 s
          | Free-atom superposition energy             :        0.033 s           0.033 s
          | Total time for integrations                :       23.892 s          23.903 s
          | Total time for solution of K.-S. equations :        0.377 s           0.411 s
          | Total time for density update              :       44.300 s          44.313 s
          | Total time for mixing & preconditioning    :        2.553 s           2.562 s
          | Total time for Hartree multipole update    :        0.021 s           0.023 s
          | Total time for Hartree multipole sum       :        3.440 s           3.441 s
          | Total time for total energy evaluation     :        0.003 s           0.008 s
          | Total time for scaled ZORA corrections     :        0.000 s           0.000 s
          | Total time for vdW correction              :        1.934 s           1.936 s

          Have a nice day.
------------------------------------------------------------
