  MPI-parallelism will be employed.
------------------------------------------------------------
          Invoking FHI-aims ...
          Version 052014
          Git rev. (modified): 096c982 Merge branch master of fhiaims:/pub/localo[...]
          Compiled on 2016/12/16 at 15:22:01 on host login02.hpc.iitd.ac.in.

          When using FHI-aims, please cite the following reference:

          Volker Blum, Ralf Gehrke, Felix Hanke, Paula Havu,
          Ville Havu, Xinguo Ren, Karsten Reuter, and Matthias Scheffler,
          'Ab Initio Molecular Simulations with Numeric Atom-Centered Orbitals: FHI-aims',
          Computer Physics Communications 180, 2175-2196 (2009)

          For any questions about FHI-aims, please visit the aimsclub website
          with its forums and wiki. Contributions to both the forums and the
          wiki are warmly encouraged - they are for you, and everyone is welcome there.

------------------------------------------------------------

  Date     :  20220221, Time     :  192836.394
  Time zero on CPU 1             :   0.251490000000000E-01  s.
  Internal wall clock time zero  :           414703716.394  s.

  Using        8 parallel tasks.
  Task        0 on host csky054 reporting.
  Task        1 on host csky054 reporting.
  Task        2 on host csky054 reporting.
  Task        3 on host csky054 reporting.
  Task        4 on host csky054 reporting.
  Task        5 on host csky054 reporting.
  Task        6 on host csky054 reporting.
  Task        7 on host csky054 reporting.

  Performing system and environment tests:
  | Environment variable OMP_NUM_THREADS correctly set to 1.
  | Stacksize not measured: no C compiler
  | Checking for scalapack...
  | Testing pdtran()...
  | All pdtran() tests passed.

  Obtaining array dimensions for all initial allocations:
  
  -----------------------------------------------------------------------
  Parsing control.in (first pass over file, find array dimensions only).
  The contents of control.in will be repeated verbatim below
  unless switched off by setting 'verbatim_writeout .false.' .
  in the first line of control.in .
  -----------------------------------------------------------------------
  
    xc               pbe
    spin             collinear
    default_initial_moment 0
    relativistic     atomic_zora scalar 1e-9
    occupation_type  gaussian 0.001
    charge	0
    vdw_correction_hirshfeld
    KS_method        scalapack_fast
    mixer            pulay
    charge_mix_param  0.4
    spin_mix_param    0.6
    sc_accuracy_rho  1E-4
    sc_accuracy_eev  1E-5
    sc_accuracy_etot 1E-5
    sc_iter_limit    100
    empty_states     5
    ####### keywords for DOS########
    k_grid  2 2 1
  ##########################
  #  relax_geometry trm 5E-5
  #  sc_accuracy_forces 1e-6
  ##########################
    output dos -20 20 10000 0.01
    dos_kgrid_factors 2 2 1
  
  ################################################################################
  #
  #  FHI-aims code project
  # Volker Blum, Fritz Haber Institute Berlin, 2009
  #
  #  Suggested "tight" defaults for C atom (to be pasted into control.in file)
  #
  ################################################################################
    species        C
  #     global species definitions
      nucleus             6
      mass                12.0107
  #
      l_hartree           6
  #
      cut_pot             4.0  2.0  1.0
      basis_dep_cutoff    1e-4
  #
      radial_base         34 7.0
      radial_multiplier   2
      angular_grids specified
        division   0.2187   50
        division   0.4416  110
        division   0.6335  194
        division   0.7727  302
        division   0.8772  434
  #      division   0.9334  590
  #      division   0.9924  770
  #      division   1.0230  974
  #      division   1.5020 1202
  #     outer_grid  974
        outer_grid  434
  ################################################################################
  #
  #  Definition of "minimal" basis
  #
  ################################################################################
  #     valence basis states
      valence      2  s   2.
      valence      2  p   2.
  #     ion occupancy
      ion_occ      2  s   1.
      ion_occ      2  p   1.
  ################################################################################
  #
  #  Suggested additional basis functions. For production calculations,
  #  uncomment them one after another (the most important basis functions are
  #  listed first).
  #
  #  Constructed for dimers: 1.0 A, 1.25 A, 1.5 A, 2.0 A, 3.0 A
  #
  ################################################################################
  #  "First tier" - improvements: -1214.57 meV to -155.61 meV
       hydro 2 p 1.7
       hydro 3 d 6
       hydro 2 s 4.9
  #  "Second tier" - improvements: -67.75 meV to -5.23 meV
       hydro 4 f 9.8
       hydro 3 p 5.2
       hydro 3 s 4.3
       hydro 5 g 14.4
       hydro 3 d 6.2
  #  "Third tier" - improvements: -2.43 meV to -0.60 meV
  #     hydro 2 p 5.6
  #     hydro 2 s 1.4
  #     hydro 3 d 4.9
  #     hydro 4 f 11.2
  #  "Fourth tier" - improvements: -0.39 meV to -0.18 meV
  #     hydro 2 p 2.1
  #     hydro 5 g 16.4
  #     hydro 4 d 13.2
  #     hydro 3 s 13.6
  #     hydro 4 f 17.6
  #  Further basis functions - improvements: -0.08 meV and below
  #     hydro 3 s 2
  #     hydro 3 p 6
  #     hydro 4 d 20
  ################################################################################
  #
  # For methods that use the localized form of the "resolution of identity" for
  # the two-electron Coulomb operator (RI_method LVL), particularly Hartree-Fock and
  # hybrid density functional calculations, the highest accuracy can be obtained by
  # uncommenting the line beginning with "for_aux"  below, thus adding an extra g radial
  # function to the construction of the product basis set for the expansion.
  # See Ref. New J. Phys. 17, 093020 (2015) for more information, particularly Figs. 1 and 6.
  #
  ################################################################################
  #
  # for_aux hydro 5 g 6.0
  
  -----------------------------------------------------------------------
  Completed first pass over input file control.in .
  -----------------------------------------------------------------------
  
  
  -----------------------------------------------------------------------
  Parsing geometry.in (first pass over file, find array dimensions only).
  The contents of geometry.in will be repeated verbatim below
  unless switched off by setting 'verbatim_writeout .false.' .
  in the first line of geometry.in .
  -----------------------------------------------------------------------
  
  lattice_vector   2.1304216  -1.2299995   0.0000000
  lattice_vector   0.0000000   2.4599989   0.0000000
  lattice_vector   0.0000000   0.0000000   6.8000000
  
  atom_frac                      -0.666667  -0.333333   0.500000  C
  atom_frac                       0.666667   0.333333   0.500000  C
  
  
  -----------------------------------------------------------------------
  Completed first pass over input file geometry.in .
  -----------------------------------------------------------------------
  

  Basic array size parameters:
  | Number of species                 :        1
  | Number of atoms                   :        2
  | Number of lattice vectors         :        3
  | Max. basis fn. angular momentum   :        4
  | Max. atomic/ionic basis occupied n:        2
  | Max. number of basis fn. types    :        2
  | Max. radial fns per species/type  :        8
  | Max. logarithmic grid size        :     1277
  | Max. radial integration grid size :       69
  | Max. angular integration grid size:      434
  | Max. angular grid division number :        8
  | Radial grid for Hartree potential :     1277
  | Number of spin channels           :        2

------------------------------------------------------------
          Reading file control.in.
------------------------------------------------------------
  XC: Using PBE gradient-corrected functionals.
  Spin treatment: Spin density functional theory - collinear spins.
  Initial spin moment per atom:   0.0000
  Scalar relativistic treatment of kinetic energy: on-site free-atom approximation to ZORA.
  Occupation type: Gaussian broadening, width =   0.100000E-02 eV.
  Charge =   0.000000E+00: Neutral system requested explicitly.
  Using non-empirical van der Waals correction (Hirshfeld partitioning):
  Kohn-Sham eigenvalues and eigenfunctions calculated by the ELPA eigensolver library.
  Using pulay charge density mixing.
  Charge density mixing - mixing parameter:     0.4000
  Spin density mixing - mixing parameter:     0.6000
  Convergence accuracy of self-consistent charge density: 0.1000E-03
  Convergence accuracy of sum of eigenvalues: 0.1000E-04
  Convergence accuracy of total energy: 0.1000E-04
  Maximum number of s.-c. iterations  :   100
  Number of empty states per atom:        5
  Found k-point grid:         2         2         1
  Calculating density of states with
  | energy interval :-20.000000 20.000000
  | points & broadening : 10000  0.010000
  Found k-point grid multipliers for perturbative DOS :         2         2         1
 
  Reading configuration options for species C                   .
  | Found nuclear charge :   6.0000
  | Found atomic mass :    12.0107000000000      amu
  | Found l_max for Hartree potential  :   6
  | Found cutoff potl. onset [A], width [A], scale factor :    4.00000    2.00000    1.00000
  | Threshold for basis-dependent cutoff potential is   0.100000E-03
  | Found data for basic radial integration grid :    34 points, outermost radius =    7.000 A
  | Found multiplier for basic radial grid :   2
  | Found angular grid specification: user-specified.
  | Specified grid contains     6 separate shells.
  | Check grid settings after all constraints further below.
  | Found free-atom valence shell :  2 s   2.000
  | Found free-atom valence shell :  2 p   2.000
  | No ionic wave fns used. Skipping ion_occ.
  | No ionic wave fns used. Skipping ion_occ.
  | Found hydrogenic basis function :  2 p   1.700
  | Found hydrogenic basis function :  3 d   6.000
  | Found hydrogenic basis function :  2 s   4.900
  | Found hydrogenic basis function :  4 f   9.800
  | Found hydrogenic basis function :  3 p   5.200
  | Found hydrogenic basis function :  3 s   4.300
  | Found hydrogenic basis function :  5 g  14.400
  | Found hydrogenic basis function :  3 d   6.200
  Species C                   : Missing cutoff potential type.
  Defaulting to exp(1/x)/(1-x)^2 type cutoff potential.
  Species C : No 'logarithmic' tag. Using default grid for free atom:
  | Default logarithmic grid data [bohr] : 0.1000E-03 0.1000E+03 0.1012E+01
  Species C : On-site basis accuracy parameter (for Gram-Schmidt orthonormalisation) not specified.
  Using default value basis_acc =  0.1000000E-03.
  Species C                   : Using default innermost maximum threshold i_radial=  2 for radial functions.
  Species C                   : Default cutoff onset for free atom density etc. : 0.40000000E+01 AA.
  Species C                   : Basic radial grid will be enhanced according to radial_multiplier =   2, to contain    69 grid points.
 
  Finished reading input file 'control.in'. Consistency checks are next.
 
  Target number of points in a grid batch is not set. Defaulting to  100
  Method for grid partitioning is not set. Defaulting to parallel hash+maxmin partitioning.
  Batch size limit is not set. Defaulting to    200
  By default, will store active basis functions for each batch.
  If in need of memory, prune_basis_once .false. can be used to disable this option.
  communication_type for Hartree potential was not specified.
  Defaulting to calc_hartree .
  Pulay mixer: Number of relevant iterations not set.
  Defaulting to    8 iterations.
  Pulay mixer: Number of initial linear mixing iterations not set.
  Defaulting to    0 iterations.
  Work space size for distributed Hartree potential not set.
  Defaulting to   0.200000E+03 MB.
  Algorithm-dependent basis array size parameters:
  | n_max_pulay                         :        8
  Calculation of forces was not defined in control.in. No forces will be calculated.
  Geometry relaxation not requested: no relaxation will be performed.
  No accuracy limit for integral partition fn. given. Defaulting to 0.1000E-14.
  No threshold value for u(r) in integrations given. Defaulting to 0.1000E-05.
  No accuracy for occupation numbers given. Defaulting to 0.1000E-07.
  No threshold value for occupation numbers given. Defaulting to 0.0000E+00.
  No accuracy for fermi level given. Defaulting to 0.1000E-19.
  Maximum # of iterations to find E_F not set. Defaulting to  200.
  Maximum number of tasks per SMP nodenot specified.
  Presetting   512 tasks.
  Will not use alltoall communication since running on < 1024 CPUs.
  Threshold for basis singularities not set.
  Default threshold for basis singularities: 0.1000E-04
  partition_type (choice of integration weights) for integrals was not specified.
  | Using a version of the partition function of Stratmann and coworkers ('stratmann_smoother').
  | At each grid point, the set of atoms used to build the partition table is smoothly restricted to
  | only those atoms whose free-atom density would be non-zero at that grid point.
  Partitioning for Hartree potential was not defined. Using partition_type for integrals.
  | Adjusted default value of keyword multip_moments_threshold to:       0.10000000E-11
  | This value may affect high angular momentum components of the Hartree potential in periodic systems.
  Angular momentum expansion for Kerker preconditioner not set explicitly.
  | Using default value of   0
  No explicit requirement for turning off preconditioner.
  | By default, it will be turned off when the charge convergence reaches
  | sc_accuracy_rho  =   0.100000E-03
  | sc_accuracy_eev  =   0.100000E-04
  | sc_accuracy_etot =   0.100000E-04
  No special mixing parameter while Kerker preconditioner is on.
  Using default: charge_mix_param =     0.4000.
  No q(lm)/r^(l+1) cutoff set for long-range Hartree potential.
  | Using default value of  0.100000E-09 .
  | Verify using the multipole_threshold keyword.
  Defaulting to new monopole extrapolation.
  Density update method: automatic selection selected.
  Using density matrix based charge density update.
  Using density matrix based charge density update.
  Using packed matrix style: index .
  Defaulting to use time-reversal symmetry for k-point grid.
  Using the following vdw_convergence_threshold for supercell sums
  over the Tkatchenko-Scheffler correction: 0.100000E-04 eV.
------------------------------------------------------------


------------------------------------------------------------
          Reading geometry description geometry.in.
------------------------------------------------------------
  Input structure read successfully.
  The structure contains        2 atoms,  and a total of         12.000 electrons.

  Input geometry:
  | Unit cell:
  |         2.130422        -1.229999         0.000000
  |         0.000000         2.459999         0.000000
  |         0.000000         0.000000         6.800000
  | Atomic structure:
  |       Atom                x [A]            y [A]            z [A]
  |    1: Species C             -1.420282         0.000001         3.400000
  |    2: Species C              1.420282        -0.000001         3.400000
  |

  | The smallest distance between any two atoms is         1.42027960 AA.
  |
  | The first atom of this pair is atom number                      2 .
  | The second atom of this pair is atom number                     1 .
  | Wigner-Seitz cell of the first atom image           1     0     0 .
  | (The Wigner-Seitz cell of the second atom is 0 0 0  by definition.)

  Quantities derived from the lattice vectors:
  | Reciprocal lattice vector 1:  2.949268 -0.000000  0.000000
  | Reciprocal lattice vector 2:  1.474634  2.554142  0.000000
  | Reciprocal lattice vector 3:  0.000000  0.000000  0.923998
  | Unit cell volume                               :   0.356377E+02  A^3

  Initial moments and charges:
  |  Atom   Moment         Charge        Species
  |     1   0.000000E+00   0.000000E+00   C
  |     2   0.000000E+00   0.000000E+00   C

  Structure-dependent array size parameters: 
  | Number of distinct atom types in initial rho :        1
  | Maximum number of distinct radial functions  :       11
  | Maximum number of basis functions            :       78
  | Number of Kohn-Sham states (occupied + empty):       11
------------------------------------------------------------

------------------------------------------------------------
          Preparing all fixed parts of the calculation.
------------------------------------------------------------
  Determining machine precision:
    2.225073858507201E-308
  Setting up grids for atomic and cluster calculations.

  Creating wave function, potential, and density for free atoms.

  Species: C

  List of occupied orbitals and eigenvalues:
    n    l              occ      energy [Ha]    energy [eV]
    1    0           2.0000       -10.049212      -273.4530
    2    0           2.0000        -0.504761       -13.7352
    2    1           2.0000        -0.193631        -5.2690

  Spin-polarized or charged system:
  Charge density initialized according to selected moments and charges.

  Creating spin-polarized density from free atoms.

  Species: C
  Charge:   0.000000
  Moment:   0.000000

  List of occupied orbitals and eigenvalues:
    n    l      energy [Ha]    energy [eV]    occupation
  Spin-up
    1    0       -10.049212      -273.4530     1.00000000
    2    0        -0.504761       -13.7352     1.00000000
    2    1        -0.193631        -5.2690     1.00000000
  Spin-down
    1    0       -10.049212      -273.4530     1.00000000
    2    0        -0.504761       -13.7352     1.00000000
    2    1        -0.193631        -5.2690     1.00000000

  Creating fixed part of basis set: Ionic, confined, hydrogenic.
 
  C                    hydrogenic:
 
  List of hydrogenic basis orbitals: 
    n    l      effective z      eigenvalue [eV]  inner max. [A]     outer max. [A]     outer radius [A]   
    2    1         1.700000        -9.8152           1.245706           1.245706           5.401630
    3    2         6.000000       -54.4226           0.792453           0.792453           4.178599
    2    0         4.900000       -81.6681           0.082559           0.562749           3.353238
    4    3         9.800000       -81.6681           0.863254           0.863254           4.028125
    3    1         5.200000       -40.8774           0.305389           1.215618           4.898362
    3    0         4.300000       -27.9508           0.091041           1.610311           5.401630
    5    4        14.400000      -112.8510           0.917666           0.917666           3.883070
    3    2         6.200000       -58.1113           0.763917           0.763917           4.077671
 

  Adding cutoff potential to free-atom effective potential.
  Creating atomic-like basis functions for current effective potential.

  Species C                   :

  List of atomic basis orbitals and eigenvalues:
    n    l      energy [Ha]    energy [eV]    outer radius [A]
    1    0       -10.049212      -273.4530       1.934409
    2    0        -0.504761       -13.7352       5.271162
    2    1        -0.193631        -5.2690       5.401630

  Assembling full basis from fixed parts.
  | Species C :   atomic orbital   1 s accepted.
  | Species C :    hydro orbital   2 s accepted.
  | Species C :   atomic orbital   2 s accepted.
  | Species C :    hydro orbital   3 s accepted.
  | Species C :    hydro orbital   3 p accepted.
  | Species C :   atomic orbital   2 p accepted.
  | Species C :    hydro orbital   2 p accepted.
  | Species C :    hydro orbital   3 d accepted.
  | Species C :    hydro orbital   3 d accepted.
  | Species C :    hydro orbital   4 f accepted.
  | Species C :    hydro orbital   5 g accepted.
 
  Basis size parameters after reduction:
  | Total number of radial functions:       11
  | Total number of basis functions :       78
 
  Testing on-site integration grid accuracy.
  |  Species  Function  <phi|h_atom|phi> (log., in eV)  <phi|h_atom|phi> (rad., in eV)
           1        1               -273.4529725981               -273.4529710451
           1        2                -10.7721037329                -10.7721022102
           1        3                 17.6044132585                 17.6044162052
           1        4                 53.7706460564                 53.7706913681
           1        5                 15.0973290351                 15.0973256011
           1        6                  3.8545134677                  3.8545724657
           1        7                 12.1156992586                 12.1182024423
           1        8                 29.4352039288                 29.4352041805
           1        9                 54.8741144697                 54.8740268719
           1       10                 59.3556032036                 59.3556031370
           1       11                 93.4551837140                 93.4551837996

  Preparing densities etc. for the partition functions (integrals / Hartree potential).

  Preparations completed.
  max(cpu_time)          :      0.163 s.
  Wall clock time (cpu1) :      0.181 s.
------------------------------------------------------------

------------------------------------------------------------
          Begin self-consistency loop: Initialization.

          Date     :  20220221, Time     :  192836.658
------------------------------------------------------------

  Initializing index lists of integration centers etc. from given atomic structure:
  Mapping all atomic coordinates to central unit cell.

  Initializing the k-points
          Using symmetry for reducing the k-points
  | k-points reduced from:        4 to        4
  | Number of k-points                             :         4
  The eigenvectors in the calculations are REAL.
  | Number of basis functions in the Hamiltonian integrals :      3472
  | Number of basis functions in a single unit cell        :        78
  | Number of centers in hartree potential         :       646
  | Number of centers in hartree multipole         :       548
  | Number of centers in electron density summation:       428
  | Number of centers in basis integrals           :       456
  | Number of centers in integrals                 :       136
  | Consuming         14 KiB for k_phase.
  | Number of super-cells :                 234
  | Size of matrix packed + index :      284874
  Using modified Scalapack Eigenvalue solver (ELPA)
  Checking for possible mapping of k-points to SMP-nodes
  Running on 1 SMP-nodes
  Mapping of k-points to SMP-nodes is *NOT* possible:
  | 4 k-points  : 1 SMP-nodes
 * The calculation will run, but some performance degradation might result.
 * Check the number of actual k-points above, and consider using a number
 * compute nodes that can be divided cleanly by the number of k points
 * (e.g., two k-points per node, two nodes per k-point, etc.).
  Using simple linear distribution as default method for k-point parallelism.
  * Using 8 tasks for Scalapack Eigenvalue solver.
  Detailed listing of tasks and assigned k-points:
   Task     0 k-point     1 on csky054
   Task     1 k-point     1 on csky054
   Task     2 k-point     2 on csky054
   Task     3 k-point     2 on csky054
   Task     4 k-point     3 on csky054
   Task     5 k-point     3 on csky054
   Task     6 k-point     4 on csky054
   Task     7 k-point     4 on csky054
  K-point:     1 Tasks:     2 split into      2 X      1 BLACS grid
  Calculating blocksize based on n_basis =           78 max_nprow =            2 max_npcol =            1
  Scalapack blocksize set to:           16
  Required Scalapack workspace - INTEGER:            1 REAL:             1
  Perform CPU consistency test for lattice for partition grid
  Perform CPU consistency test for map_to_center_cell_matrix for partition grid
  Partitioning the integration grid into batches with parallel hashing+maxmin method.
  | Number of batches:      496
  | Maximal batch size:     108
  | Minimal batch size:      50
  | Average batch size:      72.895
  | Standard deviation of batch sizes:      20.938

  Integration load balanced across     8 MPI tasks.
  Work distribution over tasks is as follows:
  Task     0 has       4522 integration points.
  Task     1 has       4521 integration points.
  Task     2 has       4485 integration points.
  Task     3 has       4502 integration points.
  Task     4 has       4502 integration points.
  Task     5 has       4538 integration points.
  Task     6 has       4549 integration points.
  Task     7 has       4537 integration points.
  Initializing partition tables, free-atom densities, potentials, etc. across the integration grid (initialize_grid_storage).
  | initialize_grid_storage: Actual outermost partition radius vs. multipole_radius_free
  | (-- VB: in principle, multipole_radius_free should be larger, hence this output)
  | Species        1: outer_partition_radius =              6.000000000000000 AA, multipole_radius_free =              6.029870734432609 AA.
  | Original list of interatomic distances with         456 x        456 entries is created.
  | Net number of integration points:    36156
  | of which are non-zero points    :    26826
  | Numerical average free-atom electrostatic potential    :     -6.92761138 eV
  Obtaining max. number of non-zero basis functions in each batch (get_n_compute_maxes).
  | Maximal number of non-zero basis functions:     1323 in task     0
  | Maximal number of non-zero basis functions:     1222 in task     1
  | Maximal number of non-zero basis functions:     1309 in task     2
  | Maximal number of non-zero basis functions:     1309 in task     3
  | Maximal number of non-zero basis functions:     1309 in task     4
  | Maximal number of non-zero basis functions:     1309 in task     5
  | Maximal number of non-zero basis functions:     1318 in task     6
  | Maximal number of non-zero basis functions:     1309 in task     7
  Integrating Hamiltonian matrix: batch-based integration.
  Time summed over all CPUs for integration: real work       14.664 s, elapsed       14.984 s
  Integrating overlap matrix.
  Time summed over all CPUs for integration: real work        6.107 s, elapsed        6.244 s
  Decreasing sparse matrix size:
   Tolerance:  9.999999824516700E-014
   Hamiltonian matrix
  | Array has   179213 nonzero elements out of   284874 elements
  | Sparsity factor is 0.371
   Overlap matrix
  | Array has   161147 nonzero elements out of   284874 elements
  | Sparsity factor is 0.434
  New size of hamiltonian matrix:      180036
  Not deallocating overlap matrix.

  Updating Kohn-Sham eigenvalues, eigenvectors, occupation numbers, and Fermi level.
  Solving generalized eigenproblem
  Solving real symmetric generalised eigenvalue problem by standard ScaLAPACK.
  Transforming overlap matrix with ScaLAPACK and checking for singularities.
  k-point        1: Overlap matrix is nonsingular, using Cholesky decomposition
  | Lowest eigenvalue:  0.153553E-03
  Factoring overlap matrix with Cholesky decomposition
  k-point        3: Overlap matrix is nonsingular, using Cholesky decomposition
  | Lowest eigenvalue:  0.952105E-04
  k-point        4: Overlap matrix is nonsingular, using Cholesky decomposition
  | Lowest eigenvalue:  0.952352E-04
  k-point        2: Overlap matrix is nonsingular, using Cholesky decomposition
  | Lowest eigenvalue:  0.952359E-04
  Using Cholesky factor for transformation
  Using 1-stage real ELPA solver
  Solving real symmetric generalised eigenvalue problem by standard ScaLAPACK.
  Using Cholesky factor for transformation
  Using 1-stage real ELPA solver
  Determining occupation numbers for Kohn-Sham eigenstates.
  | Chemical potential (Fermi level) in eV                 : -.96282236E+01
  | Error in electron count due to remaining E_F inaccuracy: 0.00000000E+00
  | Maximum occupation number of highest empty state:  0.00E+00

  Writing Kohn-Sham eigenvalues.

  Spin-up eigenvalues:
  K-point:       1 at    0.000000    0.000000    0.000000 (in units of recip. lattice)

  State    Occupation    Eigenvalue [Ha]    Eigenvalue [eV]
      1       1.00000         -10.166488         -276.64421
      2       1.00000         -10.165530         -276.61815
      3       1.00000          -1.047180          -28.49522
      4       1.00000          -0.571653          -15.55546
      5       1.00000          -0.468422          -12.74640
      6       1.00000          -0.468418          -12.74630
      7       0.00000          -0.029486           -0.80236
      8       0.00000          -0.029481           -0.80222
      9       0.00000          -0.001127           -0.03066
     10       0.00000           0.062689            1.70586
     11       0.00000           0.097037            2.64050

  Spin-down eigenvalues:
  K-point:       1 at    0.000000    0.000000    0.000000 (in units of recip. lattice)

  State    Occupation    Eigenvalue [Ha]    Eigenvalue [eV]
      1       1.00000         -10.166488         -276.64421
      2       1.00000         -10.165530         -276.61815
      3       1.00000          -1.047180          -28.49522
      4       1.00000          -0.571653          -15.55546
      5       1.00000          -0.468422          -12.74640
      6       1.00000          -0.468418          -12.74630
      7       0.00000          -0.029486           -0.80236
      8       0.00000          -0.029481           -0.80222
      9       0.00000          -0.001127           -0.03066
     10       0.00000           0.062689            1.70586
     11       0.00000           0.097037            2.64050

  Current spin moment of the entire structure :
  | N = N_up - N_down (sum over all k points):         0.00000
  | S (sum over all k points)                :         0.00000

  What follows are estimated values for band gap, HOMO, LUMO, etc.
  | They are estimated on a discrete k-point grid and not necessarily exact.
  | For converged numbers, create a DOS and/or band structure plot on a denser k-grid.

  Highest occupied state (VBM) at    -10.52931181 eV (relative to internal zero)
  | Occupation number:      1.00000000
  | K-point:       2 at    0.000000    0.500000    0.000000 (in units of recip. lattice)
  | Spin channel:        1

  Lowest unoccupied state (CBM) at    -6.37614053 eV (relative to internal zero)
  | Occupation number:      0.00000000
  | K-point:       2 at    0.000000    0.500000    0.000000 (in units of recip. lattice)
  | Spin channel:        1

  ESTIMATED overall HOMO-LUMO gap:      4.15317128 eV between HOMO at k-point 2 and LUMO at k-point 2
  | This appears to be a direct band gap.
  The gap value is above 0.2 eV. Unless you are using a very sparse k-point grid,
  this system is most likely an insulator or a semiconductor.
  Calculating total energy contributions from superposition of free atom densities.

  Total energy components:
  | Sum of eigenvalues            :         -45.92847840 Ha       -1249.77748511 eV
  | XC energy correction          :         -10.69818935 Ha        -291.11254393 eV
  | XC potential correction       :          13.74332519 Ha         373.97490602 eV
  | Free-atom electrostatic energy:         -33.32004492 Ha        -906.68455390 eV
  | Hartree energy correction     :           0.00000000 Ha           0.00000000 eV
  | van der Waals energy corr.    :           0.00000000 Ha           0.00000000 eV
  | Entropy correction            :           0.00000000 Ha           0.00000000 eV
  | ---------------------------
  | Total energy                  :         -76.20338748 Ha       -2073.59967692 eV
  | Total energy, T -> 0          :         -76.20338748 Ha       -2073.59967692 eV  <-- do not rely on this value for anything but (periodic) metals
  | Electronic free energy        :         -76.20338748 Ha       -2073.59967692 eV

  Derived energy quantities:
  | Kinetic energy                :          76.00316791 Ha        2068.15142510 eV
  | Electrostatic energy          :        -141.50836603 Ha       -3850.63855809 eV
  | Energy correction for multipole
  | error in Hartree potential    :           0.00000000 Ha           0.00000000 eV
  | Sum of eigenvalues per atom                           :        -624.88874255 eV
  | Total energy (T->0) per atom                          :       -1036.79983846 eV  <-- do not rely on this value for anything but (periodic) metals
  | Electronic free energy per atom                       :       -1036.79983846 eV
  Initialize hartree_potential_storage
  Max. number of atoms included in rho_multipole:            2

  End scf initialization - timings             :  max(cpu_time)    wall_clock(cpu1)
  | Time for scf. initialization               :        3.153 s           3.164 s
  | Boundary condition initialization          :        0.069 s           0.070 s
  | Integration                                :        2.667 s           2.673 s
  | Solution of K.-S. eqns.                    :        0.006 s           0.008 s
  | Grid partitioning                          :        0.056 s           0.058 s
  | Preloading free-atom quantities on grid    :        0.005 s           0.005 s
  | Free-atom superposition energy             :        0.031 s           0.032 s
  | Total energy evaluation                    :        0.000 s           0.000 s
------------------------------------------------------------

------------------------------------------------------------
          Begin self-consistency iteration #    1

  Date     :  20220221, Time     :  192839.822
------------------------------------------------------------
  Evaluating new KS density using the density matrix
  Evaluating density matrix
  Evaluating density matrix
  Time summed over all CPUs for getting density from density matrix: real work       26.587 s, elapsed       27.187 s
  Integration grid: deviation in total charge (<rho> - N_e) =  -3.571488E-07
  | <rho_up-rho_dn> = N_up-N_dn =     -0.0000; <|rho_up-rho_dn|> =      0.0000
  Pulay mixing of updated and previous charge densities.

  Evaluating partitioned Hartree potential by multipole expansion.
  | Analytical far-field extrapolation by fixed multipoles:
  | Hartree multipole sum: apparent total charge =   0.397709E-03
  Summing up the Hartree potential.
  | Estimated reciprocal-space cutoff momentum G_max:         3.32253784 bohr^-1 .
  | Reciprocal lattice points for long-range Hartree potential:     150
  Time summed over all CPUs for potential: real work        2.025 s, elapsed        2.074 s
  | RMS charge density error from multipole expansion :   0.338254E-02
  | Average real-space part of the electrostatic potential :      0.12772814 eV

  Integrating Hamiltonian matrix: batch-based integration.
  Time summed over all CPUs for integration: real work       14.138 s, elapsed       14.420 s

  Updating Kohn-Sham eigenvalues, eigenvectors, occupation numbers, and Fermi level.
  Solving generalized eigenproblem
  Solving real symmetric generalised eigenvalue problem by standard ScaLAPACK.
  Using Cholesky factor for transformation
  Using 1-stage real ELPA solver
  Solving real symmetric generalised eigenvalue problem by standard ScaLAPACK.
  Using Cholesky factor for transformation
  Using 1-stage real ELPA solver
  Determining occupation numbers for Kohn-Sham eigenstates.
  | Chemical potential (Fermi level) in eV                 : -.88509243E+01
  | Error in electron count due to remaining E_F inaccuracy: 0.00000000E+00
  | Maximum occupation number of highest empty state:  0.00E+00

  Writing Kohn-Sham eigenvalues.

  Spin-up eigenvalues:
  K-point:       1 at    0.000000    0.000000    0.000000 (in units of recip. lattice)

  State    Occupation    Eigenvalue [Ha]    Eigenvalue [eV]
      1       1.00000         -10.060114         -273.74962
      2       1.00000         -10.059149         -273.72338
      3       1.00000          -0.982039          -26.72265
      4       1.00000          -0.525307          -14.29434
      5       1.00000          -0.388267          -10.56528
      6       1.00000          -0.388264          -10.56519
      7       0.00000           0.008216            0.22356
      8       0.00000           0.041012            1.11600
      9       0.00000           0.041017            1.11613
     10       0.00000           0.065127            1.77220
     11       0.00000           0.162581            4.42406

  Spin-down eigenvalues:
  K-point:       1 at    0.000000    0.000000    0.000000 (in units of recip. lattice)

  State    Occupation    Eigenvalue [Ha]    Eigenvalue [eV]
      1       1.00000         -10.060114         -273.74962
      2       1.00000         -10.059149         -273.72338
      3       1.00000          -0.982039          -26.72265
      4       1.00000          -0.525307          -14.29434
      5       1.00000          -0.388267          -10.56528
      6       1.00000          -0.388264          -10.56519
      7       0.00000           0.008216            0.22356
      8       0.00000           0.041012            1.11600
      9       0.00000           0.041017            1.11613
     10       0.00000           0.065127            1.77220
     11       0.00000           0.162581            4.42406

  Current spin moment of the entire structure :
  | N = N_up - N_down (sum over all k points):         0.00000
  | S (sum over all k points)                :         0.00000

  What follows are estimated values for band gap, HOMO, LUMO, etc.
  | They are estimated on a discrete k-point grid and not necessarily exact.
  | For converged numbers, create a DOS and/or band structure plot on a denser k-grid.

  Highest occupied state (VBM) at     -9.12458951 eV (relative to internal zero)
  | Occupation number:      1.00000000
  | K-point:       2 at    0.000000    0.500000    0.000000 (in units of recip. lattice)
  | Spin channel:        1

  Lowest unoccupied state (CBM) at    -5.01645221 eV (relative to internal zero)
  | Occupation number:      0.00000000
  | K-point:       2 at    0.000000    0.500000    0.000000 (in units of recip. lattice)
  | Spin channel:        2

  ESTIMATED overall HOMO-LUMO gap:      4.10813730 eV between HOMO at k-point 2 and LUMO at k-point 2
  | This appears to be a direct band gap.
  The gap value is above 0.2 eV. Unless you are using a very sparse k-point grid,
  this system is most likely an insulator or a semiconductor.

  Total energy components:
  | Sum of eigenvalues            :         -44.96736724 Ha       -1223.62431997 eV
  | XC energy correction          :         -10.76367042 Ha        -292.89437451 eV
  | XC potential correction       :          13.82800607 Ha         376.27918991 eV
  | Free-atom electrostatic energy:         -33.32004492 Ha        -906.68455390 eV
  | Hartree energy correction     :          -0.93985029 Ha         -25.57462753 eV
  | van der Waals energy corr.    :           0.00000000 Ha           0.00000000 eV
  | Entropy correction            :           0.00000000 Ha           0.00000000 eV
  | ---------------------------
  | Total energy                  :         -76.16292681 Ha       -2072.49868601 eV
  | Total energy, T -> 0          :         -76.16292681 Ha       -2072.49868601 eV  <-- do not rely on this value for anything but (periodic) metals
  | Electronic free energy        :         -76.16292681 Ha       -2072.49868601 eV

  Derived energy quantities:
  | Kinetic energy                :          76.20321230 Ha        2073.59490993 eV
  | Electrostatic energy          :        -141.60246868 Ha       -3853.19922143 eV
  | Energy correction for multipole
  | error in Hartree potential    :          -0.00489698 Ha          -0.13325356 eV
  | Sum of eigenvalues per atom                           :        -611.81215999 eV
  | Total energy (T->0) per atom                          :       -1036.24934300 eV  <-- do not rely on this value for anything but (periodic) metals
  | Electronic free energy per atom                       :       -1036.24934300 eV

  Self-consistency convergence accuracy:
  | Change of charge/spin density : 0.2636E+00 0.6970E-18
  | Change of sum of eigenvalues  : 0.2615E+02 eV
  | Change of total energy        : 0.1101E+01 eV

  End self-consistency iteration #     1       :  max(cpu_time)    wall_clock(cpu1)
  | Time for this iteration                    :        5.683 s           5.696 s
  | Charge density update                      :        3.398 s           3.406 s
  | Density mixing & preconditioning           :        0.207 s           0.208 s
  | Hartree multipole update                   :        0.002 s           0.002 s
  | Hartree multipole summation                :        0.263 s           0.264 s
  | Integration                                :        1.806 s           1.810 s
  | Solution of K.-S. eqns.                    :        0.004 s           0.004 s
  | Total energy evaluation                    :        0.000 s           0.001 s
------------------------------------------------------------

------------------------------------------------------------
          Begin self-consistency iteration #    2

  Date     :  20220221, Time     :  192845.520
------------------------------------------------------------
  Evaluating new KS density using the density matrix
  Evaluating density matrix
  Evaluating density matrix
  Time summed over all CPUs for getting density from density matrix: real work       26.736 s, elapsed       27.223 s
  Integration grid: deviation in total charge (<rho> - N_e) =   3.977352E-04
  | <rho_up-rho_dn> = N_up-N_dn =     -0.0000; <|rho_up-rho_dn|> =      0.0000
  Pulay mixing of updated and previous charge densities.

  Evaluating partitioned Hartree potential by multipole expansion.
  | Analytical far-field extrapolation by fixed multipoles:
  | Hartree multipole sum: apparent total charge =   0.982791E-03
  Summing up the Hartree potential.
  Time summed over all CPUs for potential: real work        2.123 s, elapsed        2.179 s
  | RMS charge density error from multipole expansion :   0.837993E-02
  | Average real-space part of the electrostatic potential :      0.29838808 eV

  Integrating Hamiltonian matrix: batch-based integration.
  Time summed over all CPUs for integration: real work       14.122 s, elapsed       14.398 s

  Updating Kohn-Sham eigenvalues, eigenvectors, occupation numbers, and Fermi level.
  Solving generalized eigenproblem
  Solving real symmetric generalised eigenvalue problem by standard ScaLAPACK.
  Using Cholesky factor for transformation
  Using 1-stage real ELPA solver
  Solving real symmetric generalised eigenvalue problem by standard ScaLAPACK.
  Using Cholesky factor for transformation
  Using 1-stage real ELPA solver
  Determining occupation numbers for Kohn-Sham eigenstates.
  | Chemical potential (Fermi level) in eV                 : -.45649388E+01
  | Error in electron count due to remaining E_F inaccuracy: 0.00000000E+00
  | Maximum occupation number of highest empty state:  0.00E+00

  Current spin moment of the entire structure :
  | N = N_up - N_down (sum over all k points):         0.00000
  | S (sum over all k points)                :         0.00000

  What follows are estimated values for band gap, HOMO, LUMO, etc.
  | They are estimated on a discrete k-point grid and not necessarily exact.
  | For converged numbers, create a DOS and/or band structure plot on a denser k-grid.

  Highest occupied state (VBM) at     -7.45722906 eV (relative to internal zero)
  | Occupation number:      1.00000000
  | K-point:       3 at    0.500000    0.000000    0.000000 (in units of recip. lattice)
  | Spin channel:        1

  Lowest unoccupied state (CBM) at    -3.41086690 eV (relative to internal zero)
  | Occupation number:      0.00000000
  | K-point:       2 at    0.000000    0.500000    0.000000 (in units of recip. lattice)
  | Spin channel:        1

  ESTIMATED overall HOMO-LUMO gap:      4.04636215 eV between HOMO at k-point 3 and LUMO at k-point 2
  | This appears to be an indirect band gap.
  | Smallest direct gap :      4.04637002 eV for k_point 2 at    0.000000    0.500000    0.000000 (in units of recip. lattice)
  | Direct gap HOMO spin channel :     2
  | Direct gap LUMO spin channel :     1
  The gap value is above 0.2 eV. Unless you are using a very sparse k-point grid,
  this system is most likely an insulator or a semiconductor.

  Total energy components:
  | Sum of eigenvalues            :         -43.82931362 Ha       -1192.65630531 eV
  | XC energy correction          :         -10.85132187 Ha        -295.27949178 eV
  | XC potential correction       :          13.94096005 Ha         379.35282418 eV
  | Free-atom electrostatic energy:         -33.32004492 Ha        -906.68455390 eV
  | Hartree energy correction     :          -2.08751991 Ha         -56.80430695 eV
  | van der Waals energy corr.    :           0.00000000 Ha           0.00000000 eV
  | Entropy correction            :           0.00000000 Ha           0.00000000 eV
  | ---------------------------
  | Total energy                  :         -76.14724028 Ha       -2072.07183376 eV
  | Total energy, T -> 0          :         -76.14724028 Ha       -2072.07183376 eV  <-- do not rely on this value for anything but (periodic) metals
  | Electronic free energy        :         -76.14724028 Ha       -2072.07183376 eV

  Derived energy quantities:
  | Kinetic energy                :          76.26412206 Ha        2075.25234904 eV
  | Electrostatic energy          :        -141.56004047 Ha       -3852.04469102 eV
  | Energy correction for multipole
  | error in Hartree potential    :          -0.01218350 Ha          -0.33152985 eV
  | Sum of eigenvalues per atom                           :        -596.32815266 eV
  | Total energy (T->0) per atom                          :       -1036.03591688 eV  <-- do not rely on this value for anything but (periodic) metals
  | Electronic free energy per atom                       :       -1036.03591688 eV

  Self-consistency convergence accuracy:
  | Change of charge/spin density : 0.1485E+00 0.3384E-14
  | Change of sum of eigenvalues  : 0.3097E+02 eV
  | Change of total energy        : 0.4269E+00 eV

  End self-consistency iteration #     2       :  max(cpu_time)    wall_clock(cpu1)
  | Time for this iteration                    :        5.690 s           5.703 s
  | Charge density update                      :        3.402 s           3.409 s
  | Density mixing & preconditioning           :        0.201 s           0.203 s
  | Hartree multipole update                   :        0.002 s           0.001 s
  | Hartree multipole summation                :        0.277 s           0.278 s
  | Integration                                :        1.803 s           1.807 s
  | Solution of K.-S. eqns.                    :        0.004 s           0.004 s
  | Total energy evaluation                    :        0.000 s           0.001 s
------------------------------------------------------------

------------------------------------------------------------
          Begin self-consistency iteration #    3

  Date     :  20220221, Time     :  192851.225
------------------------------------------------------------
  Evaluating new KS density using the density matrix
  Evaluating density matrix
  Evaluating density matrix
  Time summed over all CPUs for getting density from density matrix: real work       26.711 s, elapsed       27.195 s
  Integration grid: deviation in total charge (<rho> - N_e) =   9.833780E-04
  | <rho_up-rho_dn> = N_up-N_dn =      0.0000; <|rho_up-rho_dn|> =      0.0000
  Pulay mixing of updated and previous charge densities.

  Evaluating partitioned Hartree potential by multipole expansion.
  | Analytical far-field extrapolation by fixed multipoles:
  | Hartree multipole sum: apparent total charge =   0.660807E-03
  Summing up the Hartree potential.
  Time summed over all CPUs for potential: real work        2.123 s, elapsed        2.179 s
  | RMS charge density error from multipole expansion :   0.952726E-02
  | Average real-space part of the electrostatic potential :      0.31458800 eV

  Integrating Hamiltonian matrix: batch-based integration.
  Time summed over all CPUs for integration: real work       14.130 s, elapsed       14.413 s

  Updating Kohn-Sham eigenvalues, eigenvectors, occupation numbers, and Fermi level.
  Solving generalized eigenproblem
  Solving real symmetric generalised eigenvalue problem by standard ScaLAPACK.
  Using Cholesky factor for transformation
  Using 1-stage real ELPA solver
  Solving real symmetric generalised eigenvalue problem by standard ScaLAPACK.
  Using Cholesky factor for transformation
  Using 1-stage real ELPA solver
  Determining occupation numbers for Kohn-Sham eigenstates.
  | Chemical potential (Fermi level) in eV                 : -.46381556E+01
  | Error in electron count due to remaining E_F inaccuracy: 0.00000000E+00
  | Maximum occupation number of highest empty state:  0.00E+00

  Current spin moment of the entire structure :
  | N = N_up - N_down (sum over all k points):         0.00000
  | S (sum over all k points)                :         0.00000

  What follows are estimated values for band gap, HOMO, LUMO, etc.
  | They are estimated on a discrete k-point grid and not necessarily exact.
  | For converged numbers, create a DOS and/or band structure plot on a denser k-grid.

  Highest occupied state (VBM) at     -7.58828419 eV (relative to internal zero)
  | Occupation number:      1.00000000
  | K-point:       3 at    0.500000    0.000000    0.000000 (in units of recip. lattice)
  | Spin channel:        2

  Lowest unoccupied state (CBM) at    -3.52709390 eV (relative to internal zero)
  | Occupation number:      0.00000000
  | K-point:       2 at    0.000000    0.500000    0.000000 (in units of recip. lattice)
  | Spin channel:        1

  ESTIMATED overall HOMO-LUMO gap:      4.06119029 eV between HOMO at k-point 3 and LUMO at k-point 2
  | This appears to be an indirect band gap.
  | Smallest direct gap :      4.06121522 eV for k_point 2 at    0.000000    0.500000    0.000000 (in units of recip. lattice)
  | Direct gap HOMO spin channel :     2
  | Direct gap LUMO spin channel :     1
  The gap value is above 0.2 eV. Unless you are using a very sparse k-point grid,
  this system is most likely an insulator or a semiconductor.

  Total energy components:
  | Sum of eigenvalues            :         -43.95764519 Ha       -1196.14838499 eV
  | XC energy correction          :         -10.83633751 Ha        -294.87174643 eV
  | XC potential correction       :          13.92239354 Ha         378.84760367 eV
  | Free-atom electrostatic energy:         -33.32004492 Ha        -906.68455390 eV
  | Hartree energy correction     :          -1.95567436 Ha         -53.21660698 eV
  | van der Waals energy corr.    :           0.00000000 Ha           0.00000000 eV
  | Entropy correction            :           0.00000000 Ha           0.00000000 eV
  | ---------------------------
  | Total energy                  :         -76.14730844 Ha       -2072.07368863 eV
  | Total energy, T -> 0          :         -76.14730844 Ha       -2072.07368863 eV  <-- do not rely on this value for anything but (periodic) metals
  | Electronic free energy        :         -76.14730844 Ha       -2072.07368863 eV

  Derived energy quantities:
  | Kinetic energy                :          76.07381651 Ha        2070.07387133 eV
  | Electrostatic energy          :        -141.38478744 Ha       -3847.27581354 eV
  | Energy correction for multipole
  | error in Hartree potential    :          -0.01390806 Ha          -0.37845746 eV
  | Sum of eigenvalues per atom                           :        -598.07419250 eV
  | Total energy (T->0) per atom                          :       -1036.03684432 eV  <-- do not rely on this value for anything but (periodic) metals
  | Electronic free energy per atom                       :       -1036.03684432 eV

  Self-consistency convergence accuracy:
  | Change of charge/spin density : 0.1878E-01 0.7453E-14
  | Change of sum of eigenvalues  : -.3492E+01 eV
  | Change of total energy        : -.1855E-02 eV

  End self-consistency iteration #     3       :  max(cpu_time)    wall_clock(cpu1)
  | Time for this iteration                    :        5.687 s           5.700 s
  | Charge density update                      :        3.400 s           3.407 s
  | Density mixing & preconditioning           :        0.201 s           0.201 s
  | Hartree multipole update                   :        0.001 s           0.002 s
  | Hartree multipole summation                :        0.276 s           0.277 s
  | Integration                                :        1.803 s           1.808 s
  | Solution of K.-S. eqns.                    :        0.004 s           0.004 s
  | Total energy evaluation                    :        0.000 s           0.001 s
------------------------------------------------------------

------------------------------------------------------------
          Begin self-consistency iteration #    4

  Date     :  20220221, Time     :  192856.930
------------------------------------------------------------
  Evaluating new KS density using the density matrix
  Evaluating density matrix
  Evaluating density matrix
  Time summed over all CPUs for getting density from density matrix: real work       26.789 s, elapsed       27.275 s
  Integration grid: deviation in total charge (<rho> - N_e) =   6.614661E-04
  | <rho_up-rho_dn> = N_up-N_dn =     -0.0000; <|rho_up-rho_dn|> =      0.0000
  Pulay mixing of updated and previous charge densities.

  Evaluating partitioned Hartree potential by multipole expansion.
  | Analytical far-field extrapolation by fixed multipoles:
  | Hartree multipole sum: apparent total charge =   0.538181E-03
  Summing up the Hartree potential.
  Time summed over all CPUs for potential: real work        2.123 s, elapsed        2.179 s
  | RMS charge density error from multipole expansion :   0.956799E-02
  | Average real-space part of the electrostatic potential :      0.31574042 eV

  Integrating Hamiltonian matrix: batch-based integration.
  Time summed over all CPUs for integration: real work       14.073 s, elapsed       14.360 s

  Updating Kohn-Sham eigenvalues, eigenvectors, occupation numbers, and Fermi level.
  Solving generalized eigenproblem
  Solving real symmetric generalised eigenvalue problem by standard ScaLAPACK.
  Using Cholesky factor for transformation
  Using 1-stage real ELPA solver
  Solving real symmetric generalised eigenvalue problem by standard ScaLAPACK.
  Using Cholesky factor for transformation
  Using 1-stage real ELPA solver
  Determining occupation numbers for Kohn-Sham eigenstates.
  | Chemical potential (Fermi level) in eV                 : -.46250488E+01
  | Error in electron count due to remaining E_F inaccuracy: 0.00000000E+00
  | Maximum occupation number of highest empty state:  0.00E+00

  Current spin moment of the entire structure :
  | N = N_up - N_down (sum over all k points):         0.00000
  | S (sum over all k points)                :         0.00000

  What follows are estimated values for band gap, HOMO, LUMO, etc.
  | They are estimated on a discrete k-point grid and not necessarily exact.
  | For converged numbers, create a DOS and/or band structure plot on a denser k-grid.

  Highest occupied state (VBM) at     -7.56587156 eV (relative to internal zero)
  | Occupation number:      1.00000000
  | K-point:       3 at    0.500000    0.000000    0.000000 (in units of recip. lattice)
  | Spin channel:        2

  Lowest unoccupied state (CBM) at    -3.50553503 eV (relative to internal zero)
  | Occupation number:      0.00000000
  | K-point:       2 at    0.000000    0.500000    0.000000 (in units of recip. lattice)
  | Spin channel:        2

  ESTIMATED overall HOMO-LUMO gap:      4.06033653 eV between HOMO at k-point 3 and LUMO at k-point 2
  | This appears to be an indirect band gap.
  | Smallest direct gap :      4.06036186 eV for k_point 2 at    0.000000    0.500000    0.000000 (in units of recip. lattice)
  | Direct gap HOMO spin channel :     1
  | Direct gap LUMO spin channel :     2
  The gap value is above 0.2 eV. Unless you are using a very sparse k-point grid,
  this system is most likely an insulator or a semiconductor.

  Total energy components:
  | Sum of eigenvalues            :         -43.94250977 Ha       -1195.73652929 eV
  | XC energy correction          :         -10.83776187 Ha        -294.91050525 eV
  | XC potential correction       :          13.92420323 Ha         378.89684805 eV
  | Free-atom electrostatic energy:         -33.32004492 Ha        -906.68455390 eV
  | Hartree energy correction     :          -1.97118851 Ha         -53.63876846 eV
  | van der Waals energy corr.    :           0.00000000 Ha           0.00000000 eV
  | Entropy correction            :           0.00000000 Ha           0.00000000 eV
  | ---------------------------
  | Total energy                  :         -76.14730183 Ha       -2072.07350885 eV
  | Total energy, T -> 0          :         -76.14730183 Ha       -2072.07350885 eV  <-- do not rely on this value for anything but (periodic) metals
  | Electronic free energy        :         -76.14730183 Ha       -2072.07350885 eV

  Derived energy quantities:
  | Kinetic energy                :          76.07974816 Ha        2070.23527995 eV
  | Electrostatic energy          :        -141.38928813 Ha       -3847.39828355 eV
  | Energy correction for multipole
  | error in Hartree potential    :          -0.01397574 Ha          -0.38029935 eV
  | Sum of eigenvalues per atom                           :        -597.86826465 eV
  | Total energy (T->0) per atom                          :       -1036.03675443 eV  <-- do not rely on this value for anything but (periodic) metals
  | Electronic free energy per atom                       :       -1036.03675443 eV

  Self-consistency convergence accuracy:
  | Change of charge/spin density : 0.2362E-02 0.9813E-13
  | Change of sum of eigenvalues  : 0.4119E+00 eV
  | Change of total energy        : 0.1798E-03 eV

  End self-consistency iteration #     4       :  max(cpu_time)    wall_clock(cpu1)
  | Time for this iteration                    :        5.688 s           5.700 s
  | Charge density update                      :        3.410 s           3.416 s
  | Density mixing & preconditioning           :        0.198 s           0.198 s
  | Hartree multipole update                   :        0.002 s           0.002 s
  | Hartree multipole summation                :        0.277 s           0.277 s
  | Integration                                :        1.796 s           1.801 s
  | Solution of K.-S. eqns.                    :        0.004 s           0.004 s
  | Total energy evaluation                    :        0.000 s           0.001 s
------------------------------------------------------------

------------------------------------------------------------
          Begin self-consistency iteration #    5

  Date     :  20220221, Time     :  192902.632
------------------------------------------------------------
  Evaluating new KS density using the density matrix
  Evaluating density matrix
  Evaluating density matrix
  Time summed over all CPUs for getting density from density matrix: real work       26.678 s, elapsed       27.157 s
  Integration grid: deviation in total charge (<rho> - N_e) =   5.388425E-04
  | <rho_up-rho_dn> = N_up-N_dn =     -0.0000; <|rho_up-rho_dn|> =      0.0000
  Pulay mixing of updated and previous charge densities.

  Evaluating partitioned Hartree potential by multipole expansion.
  | Analytical far-field extrapolation by fixed multipoles:
  | Hartree multipole sum: apparent total charge =   0.144296E-03
  Summing up the Hartree potential.
  Time summed over all CPUs for potential: real work        2.125 s, elapsed        2.181 s
  | RMS charge density error from multipole expansion :   0.964750E-02
  | Average real-space part of the electrostatic potential :      0.31698413 eV

  Integrating Hamiltonian matrix: batch-based integration.
  Time summed over all CPUs for integration: real work       14.109 s, elapsed       14.397 s

  Updating Kohn-Sham eigenvalues, eigenvectors, occupation numbers, and Fermi level.
  Solving generalized eigenproblem
  Solving real symmetric generalised eigenvalue problem by standard ScaLAPACK.
  Using Cholesky factor for transformation
  Using 1-stage real ELPA solver
  Solving real symmetric generalised eigenvalue problem by standard ScaLAPACK.
  Using Cholesky factor for transformation
  Using 1-stage real ELPA solver
  Determining occupation numbers for Kohn-Sham eigenstates.
  | Chemical potential (Fermi level) in eV                 : -.46124830E+01
  | Error in electron count due to remaining E_F inaccuracy: 0.00000000E+00
  | Maximum occupation number of highest empty state:  0.00E+00

  Current spin moment of the entire structure :
  | N = N_up - N_down (sum over all k points):         0.00000
  | S (sum over all k points)                :         0.00000

  What follows are estimated values for band gap, HOMO, LUMO, etc.
  | They are estimated on a discrete k-point grid and not necessarily exact.
  | For converged numbers, create a DOS and/or band structure plot on a denser k-grid.

  Highest occupied state (VBM) at     -7.54306151 eV (relative to internal zero)
  | Occupation number:      1.00000000
  | K-point:       3 at    0.500000    0.000000    0.000000 (in units of recip. lattice)
  | Spin channel:        1

  Lowest unoccupied state (CBM) at    -3.48320167 eV (relative to internal zero)
  | Occupation number:      0.00000000
  | K-point:       2 at    0.000000    0.500000    0.000000 (in units of recip. lattice)
  | Spin channel:        2

  ESTIMATED overall HOMO-LUMO gap:      4.05985984 eV between HOMO at k-point 3 and LUMO at k-point 2
  | This appears to be an indirect band gap.
  | Smallest direct gap :      4.05988629 eV for k_point 2 at    0.000000    0.500000    0.000000 (in units of recip. lattice)
  | Direct gap HOMO spin channel :     2
  | Direct gap LUMO spin channel :     2
  The gap value is above 0.2 eV. Unless you are using a very sparse k-point grid,
  this system is most likely an insulator or a semiconductor.

  Total energy components:
  | Sum of eigenvalues            :         -43.92950436 Ha       -1195.38263400 eV
  | XC energy correction          :         -10.83905579 Ha        -294.94571475 eV
  | XC potential correction       :          13.92584452 Ha         378.94150969 eV
  | Free-atom electrostatic energy:         -33.32004492 Ha        -906.68455390 eV
  | Hartree energy correction     :          -1.98454272 Ha         -54.00215491 eV
  | van der Waals energy corr.    :           0.00000000 Ha           0.00000000 eV
  | Entropy correction            :           0.00000000 Ha           0.00000000 eV
  | ---------------------------
  | Total energy                  :         -76.14730327 Ha       -2072.07354787 eV
  | Total energy, T -> 0          :         -76.14730327 Ha       -2072.07354787 eV  <-- do not rely on this value for anything but (periodic) metals
  | Electronic free energy        :         -76.14730327 Ha       -2072.07354787 eV

  Derived energy quantities:
  | Kinetic energy                :          76.08441912 Ha        2070.36238302 eV
  | Electrostatic energy          :        -141.39266659 Ha       -3847.49021614 eV
  | Energy correction for multipole
  | error in Hartree potential    :          -0.01411503 Ha          -0.38408961 eV
  | Sum of eigenvalues per atom                           :        -597.69131700 eV
  | Total energy (T->0) per atom                          :       -1036.03677393 eV  <-- do not rely on this value for anything but (periodic) metals
  | Electronic free energy per atom                       :       -1036.03677393 eV

  Self-consistency convergence accuracy:
  | Change of charge/spin density : 0.1365E-02 0.5400E-12
  | Change of sum of eigenvalues  : 0.3539E+00 eV
  | Change of total energy        : -.3901E-04 eV

  End self-consistency iteration #     5       :  max(cpu_time)    wall_clock(cpu1)
  | Time for this iteration                    :        5.676 s           5.689 s
  | Charge density update                      :        3.393 s           3.400 s
  | Density mixing & preconditioning           :        0.197 s           0.198 s
  | Hartree multipole update                   :        0.001 s           0.002 s
  | Hartree multipole summation                :        0.277 s           0.277 s
  | Integration                                :        1.802 s           1.806 s
  | Solution of K.-S. eqns.                    :        0.004 s           0.004 s
  | Total energy evaluation                    :        0.000 s           0.000 s
------------------------------------------------------------

------------------------------------------------------------
          Begin self-consistency iteration #    6

  Date     :  20220221, Time     :  192908.322
------------------------------------------------------------
  Evaluating new KS density using the density matrix
  Evaluating density matrix
  Evaluating density matrix
  Time summed over all CPUs for getting density from density matrix: real work       26.757 s, elapsed       27.241 s
  Integration grid: deviation in total charge (<rho> - N_e) =   1.449580E-04
  | <rho_up-rho_dn> = N_up-N_dn =      0.0000; <|rho_up-rho_dn|> =      0.0000
  Pulay mixing of updated and previous charge densities.

  Evaluating partitioned Hartree potential by multipole expansion.
  | Analytical far-field extrapolation by fixed multipoles:
  | Hartree multipole sum: apparent total charge =   0.903517E-04
  Summing up the Hartree potential.
  Time summed over all CPUs for potential: real work        2.125 s, elapsed        2.181 s
  | RMS charge density error from multipole expansion :   0.964749E-02
  | Average real-space part of the electrostatic potential :      0.31713812 eV

  Integrating Hamiltonian matrix: batch-based integration.
  Time summed over all CPUs for integration: real work       14.098 s, elapsed       14.400 s

  Updating Kohn-Sham eigenvalues, eigenvectors, occupation numbers, and Fermi level.
  Solving generalized eigenproblem
  Solving real symmetric generalised eigenvalue problem by standard ScaLAPACK.
  Using Cholesky factor for transformation
  Using 1-stage real ELPA solver
  Solving real symmetric generalised eigenvalue problem by standard ScaLAPACK.
  Using Cholesky factor for transformation
  Using 1-stage real ELPA solver
  Determining occupation numbers for Kohn-Sham eigenstates.
  | Chemical potential (Fermi level) in eV                 : -.46125780E+01
  | Error in electron count due to remaining E_F inaccuracy: 0.00000000E+00
  | Maximum occupation number of highest empty state:  0.00E+00

  Current spin moment of the entire structure :
  | N = N_up - N_down (sum over all k points):         0.00000
  | S (sum over all k points)                :         0.00000

  What follows are estimated values for band gap, HOMO, LUMO, etc.
  | They are estimated on a discrete k-point grid and not necessarily exact.
  | For converged numbers, create a DOS and/or band structure plot on a denser k-grid.

  Highest occupied state (VBM) at     -7.54295191 eV (relative to internal zero)
  | Occupation number:      1.00000000
  | K-point:       3 at    0.500000    0.000000    0.000000 (in units of recip. lattice)
  | Spin channel:        1

  Lowest unoccupied state (CBM) at    -3.48311884 eV (relative to internal zero)
  | Occupation number:      0.00000000
  | K-point:       2 at    0.000000    0.500000    0.000000 (in units of recip. lattice)
  | Spin channel:        2

  ESTIMATED overall HOMO-LUMO gap:      4.05983308 eV between HOMO at k-point 3 and LUMO at k-point 2
  | This appears to be an indirect band gap.
  | Smallest direct gap :      4.05985951 eV for k_point 2 at    0.000000    0.500000    0.000000 (in units of recip. lattice)
  | Direct gap HOMO spin channel :     1
  | Direct gap LUMO spin channel :     2
  The gap value is above 0.2 eV. Unless you are using a very sparse k-point grid,
  this system is most likely an insulator or a semiconductor.

  Total energy components:
  | Sum of eigenvalues            :         -43.92948929 Ha       -1195.38222384 eV
  | XC energy correction          :         -10.83907410 Ha        -294.94621292 eV
  | XC potential correction       :          13.92586777 Ha         378.94214250 eV
  | Free-atom electrostatic energy:         -33.32004492 Ha        -906.68455390 eV
  | Hartree energy correction     :          -1.98456306 Ha         -54.00270858 eV
  | van der Waals energy corr.    :           0.00000000 Ha           0.00000000 eV
  | Entropy correction            :           0.00000000 Ha           0.00000000 eV
  | ---------------------------
  | Total energy                  :         -76.14730359 Ha       -2072.07355674 eV
  | Total energy, T -> 0          :         -76.14730359 Ha       -2072.07355674 eV  <-- do not rely on this value for anything but (periodic) metals
  | Electronic free energy        :         -76.14730359 Ha       -2072.07355674 eV

  Derived energy quantities:
  | Kinetic energy                :          76.08446976 Ha        2070.36376104 eV
  | Electrostatic energy          :        -141.39269925 Ha       -3847.49110487 eV
  | Energy correction for multipole
  | error in Hartree potential    :          -0.01411576 Ha          -0.38410939 eV
  | Sum of eigenvalues per atom                           :        -597.69111192 eV
  | Total energy (T->0) per atom                          :       -1036.03677837 eV  <-- do not rely on this value for anything but (periodic) metals
  | Electronic free energy per atom                       :       -1036.03677837 eV

  Self-consistency convergence accuracy:
  | Change of charge/spin density : 0.9001E-04 0.1153E-10
  | Change of sum of eigenvalues  : 0.4102E-03 eV
  | Change of total energy        : -.8874E-05 eV

  End self-consistency iteration #     6       :  max(cpu_time)    wall_clock(cpu1)
  | Time for this iteration                    :        5.680 s           5.694 s
  | Charge density update                      :        3.403 s           3.411 s
  | Density mixing & preconditioning           :        0.192 s           0.192 s
  | Hartree multipole update                   :        0.002 s           0.002 s
  | Hartree multipole summation                :        0.277 s           0.277 s
  | Integration                                :        1.801 s           1.806 s
  | Solution of K.-S. eqns.                    :        0.004 s           0.004 s
  | Total energy evaluation                    :        0.000 s           0.000 s
------------------------------------------------------------

------------------------------------------------------------
          Begin self-consistency iteration #    7

  Date     :  20220221, Time     :  192914.020
------------------------------------------------------------
  Evaluating new KS density using the density matrix
  Evaluating density matrix
  Evaluating density matrix
  Time summed over all CPUs for getting density from density matrix: real work       26.676 s, elapsed       27.191 s
  Integration grid: deviation in total charge (<rho> - N_e) =   9.101325E-05
  | <rho_up-rho_dn> = N_up-N_dn =      0.0000; <|rho_up-rho_dn|> =      0.0000
  Pulay mixing of updated and previous charge densities.

  Evaluating partitioned Hartree potential by multipole expansion.
  | Analytical far-field extrapolation by fixed multipoles:
  | Hartree multipole sum: apparent total charge =   0.343214E-04
  Summing up the Hartree potential.
  Time summed over all CPUs for potential: real work        2.124 s, elapsed        2.180 s
  | RMS charge density error from multipole expansion :   0.964738E-02
  | Average real-space part of the electrostatic potential :      0.31730153 eV

  Integrating Hamiltonian matrix: batch-based integration.
  Time summed over all CPUs for integration: real work       14.069 s, elapsed       14.363 s

  Updating Kohn-Sham eigenvalues, eigenvectors, occupation numbers, and Fermi level.
  Solving generalized eigenproblem
  Solving real symmetric generalised eigenvalue problem by standard ScaLAPACK.
  Using Cholesky factor for transformation
  Using 1-stage real ELPA solver
  Solving real symmetric generalised eigenvalue problem by standard ScaLAPACK.
  Using Cholesky factor for transformation
  Using 1-stage real ELPA solver
  Determining occupation numbers for Kohn-Sham eigenstates.
  | Chemical potential (Fermi level) in eV                 : -.46126331E+01
  | Error in electron count due to remaining E_F inaccuracy: 0.00000000E+00
  | Maximum occupation number of highest empty state:  0.00E+00

  Current spin moment of the entire structure :
  | N = N_up - N_down (sum over all k points):         0.00000
  | S (sum over all k points)                :         0.00000

  What follows are estimated values for band gap, HOMO, LUMO, etc.
  | They are estimated on a discrete k-point grid and not necessarily exact.
  | For converged numbers, create a DOS and/or band structure plot on a denser k-grid.

  Highest occupied state (VBM) at     -7.54290048 eV (relative to internal zero)
  | Occupation number:      1.00000000
  | K-point:       3 at    0.500000    0.000000    0.000000 (in units of recip. lattice)
  | Spin channel:        2

  Lowest unoccupied state (CBM) at    -3.48307640 eV (relative to internal zero)
  | Occupation number:      0.00000000
  | K-point:       2 at    0.000000    0.500000    0.000000 (in units of recip. lattice)
  | Spin channel:        2

  ESTIMATED overall HOMO-LUMO gap:      4.05982407 eV between HOMO at k-point 3 and LUMO at k-point 2
  | This appears to be an indirect band gap.
  | Smallest direct gap :      4.05985054 eV for k_point 2 at    0.000000    0.500000    0.000000 (in units of recip. lattice)
  | Direct gap HOMO spin channel :     2
  | Direct gap LUMO spin channel :     2
  The gap value is above 0.2 eV. Unless you are using a very sparse k-point grid,
  this system is most likely an insulator or a semiconductor.

  Total energy components:
  | Sum of eigenvalues            :         -43.92952558 Ha       -1195.38321150 eV
  | XC energy correction          :         -10.83909114 Ha        -294.94667653 eV
  | XC potential correction       :          13.92588907 Ha         378.94272198 eV
  | Free-atom electrostatic energy:         -33.32004492 Ha        -906.68455390 eV
  | Hartree energy correction     :          -1.98453068 Ha         -54.00182745 eV
  | van der Waals energy corr.    :           0.00000000 Ha           0.00000000 eV
  | Entropy correction            :           0.00000000 Ha           0.00000000 eV
  | ---------------------------
  | Total energy                  :         -76.14730325 Ha       -2072.07354740 eV
  | Total energy, T -> 0          :         -76.14730325 Ha       -2072.07354740 eV  <-- do not rely on this value for anything but (periodic) metals
  | Electronic free energy        :         -76.14730325 Ha       -2072.07354740 eV

  Derived energy quantities:
  | Kinetic energy                :          76.08452126 Ha        2070.36516263 eV
  | Electrostatic energy          :        -141.39273338 Ha       -3847.49203350 eV
  | Energy correction for multipole
  | error in Hartree potential    :          -0.01411658 Ha          -0.38413163 eV
  | Sum of eigenvalues per atom                           :        -597.69160575 eV
  | Total energy (T->0) per atom                          :       -1036.03677370 eV  <-- do not rely on this value for anything but (periodic) metals
  | Electronic free energy per atom                       :       -1036.03677370 eV

  Self-consistency convergence accuracy:
  | Change of charge/spin density : 0.2289E-02 0.8087E-10
  | Change of sum of eigenvalues  : -.9877E-03 eV
  | Change of total energy        : 0.9339E-05 eV

  End self-consistency iteration #     7       :  max(cpu_time)    wall_clock(cpu1)
  | Time for this iteration                    :        5.667 s           5.679 s
  | Charge density update                      :        3.397 s           3.404 s
  | Density mixing & preconditioning           :        0.190 s           0.191 s
  | Hartree multipole update                   :        0.001 s           0.001 s
  | Hartree multipole summation                :        0.276 s           0.277 s
  | Integration                                :        1.795 s           1.800 s
  | Solution of K.-S. eqns.                    :        0.004 s           0.004 s
  | Total energy evaluation                    :        0.000 s           0.000 s
------------------------------------------------------------

------------------------------------------------------------
          Begin self-consistency iteration #    8

  Date     :  20220221, Time     :  192919.700
------------------------------------------------------------
  Evaluating new KS density using the density matrix
  Evaluating density matrix
  Evaluating density matrix
  Time summed over all CPUs for getting density from density matrix: real work       26.679 s, elapsed       27.195 s
  Integration grid: deviation in total charge (<rho> - N_e) =   3.498279E-05
  | <rho_up-rho_dn> = N_up-N_dn =     -0.0000; <|rho_up-rho_dn|> =      0.0000
  Pulay mixing of updated and previous charge densities.

  Evaluating partitioned Hartree potential by multipole expansion.
  | Analytical far-field extrapolation by fixed multipoles:
  | Hartree multipole sum: apparent total charge =   0.780790E-05
  Summing up the Hartree potential.
  Time summed over all CPUs for potential: real work        2.125 s, elapsed        2.181 s
  | RMS charge density error from multipole expansion :   0.964758E-02
  | Average real-space part of the electrostatic potential :      0.31737630 eV

  Integrating Hamiltonian matrix: batch-based integration.
  Time summed over all CPUs for integration: real work       14.076 s, elapsed       14.373 s

  Updating Kohn-Sham eigenvalues, eigenvectors, occupation numbers, and Fermi level.
  Solving generalized eigenproblem
  Solving real symmetric generalised eigenvalue problem by standard ScaLAPACK.
  Using Cholesky factor for transformation
  Using 1-stage real ELPA solver
  Solving real symmetric generalised eigenvalue problem by standard ScaLAPACK.
  Using Cholesky factor for transformation
  Using 1-stage real ELPA solver
  Determining occupation numbers for Kohn-Sham eigenstates.
  | Chemical potential (Fermi level) in eV                 : -.46125504E+01
  | Error in electron count due to remaining E_F inaccuracy: 0.00000000E+00
  | Maximum occupation number of highest empty state:  0.00E+00

  Current spin moment of the entire structure :
  | N = N_up - N_down (sum over all k points):         0.00000
  | S (sum over all k points)                :         0.00000

  What follows are estimated values for band gap, HOMO, LUMO, etc.
  | They are estimated on a discrete k-point grid and not necessarily exact.
  | For converged numbers, create a DOS and/or band structure plot on a denser k-grid.

  Highest occupied state (VBM) at     -7.54268014 eV (relative to internal zero)
  | Occupation number:      1.00000000
  | K-point:       3 at    0.500000    0.000000    0.000000 (in units of recip. lattice)
  | Spin channel:        1

[...]
  | Free-atom electrostatic energy:         -33.32004492 Ha        -906.68455390 eV
  | Hartree energy correction     :          -1.98461528 Ha         -54.00412941 eV
  | van der Waals energy corr.    :           0.00000000 Ha           0.00000000 eV
  | Entropy correction            :           0.00000000 Ha           0.00000000 eV
  | ---------------------------
  | Total energy                  :         -76.14730324 Ha       -2072.07354709 eV
  | Total energy, T -> 0          :         -76.14730324 Ha       -2072.07354709 eV  <-- do not rely on this value for anything but (periodic) metals
  | Electronic free energy        :         -76.14730324 Ha       -2072.07354709 eV

  Derived energy quantities:
  | Kinetic energy                :          76.08455448 Ha        2070.36606640 eV
  | Electrostatic energy          :        -141.39275247 Ha       -3847.49255289 eV
  | Energy correction for multipole
  | error in Hartree potential    :          -0.01411640 Ha          -0.38412676 eV
  | Sum of eigenvalues per atom                           :        -597.69051136 eV
  | Total energy (T->0) per atom                          :       -1036.03677355 eV  <-- do not rely on this value for anything but (periodic) metals
  | Electronic free energy per atom                       :       -1036.03677355 eV

  Self-consistency convergence accuracy:
  | Change of charge/spin density : 0.4145E-06 0.2586E-07
  | Change of sum of eigenvalues  : -.2023E-03 eV
  | Change of total energy        : 0.3690E-07 eV

  End self-consistency iteration #    10       :  max(cpu_time)    wall_clock(cpu1)
  | Time for this iteration                    :        5.675 s           5.688 s
  | Charge density update                      :        3.403 s           3.410 s
  | Density mixing & preconditioning           :        0.192 s           0.193 s
  | Hartree multipole update                   :        0.002 s           0.002 s
  | Hartree multipole summation                :        0.277 s           0.277 s
  | Integration                                :        1.796 s           1.801 s
  | Solution of K.-S. eqns.                    :        0.004 s           0.004 s
  | Total energy evaluation                    :        0.000 s           0.001 s
------------------------------------------------------------

------------------------------------------------------------
          Begin self-consistency iteration #   11

  Date     :  20220221, Time     :  192936.753
------------------------------------------------------------
  Evaluating new KS density using the density matrix
  Evaluating density matrix
  Evaluating density matrix
  Time summed over all CPUs for getting density from density matrix: real work       26.667 s, elapsed       27.192 s
  Integration grid: deviation in total charge (<rho> - N_e) =   1.402326E-08
  | <rho_up-rho_dn> = N_up-N_dn =     -0.0000; <|rho_up-rho_dn|> =      0.0000
  Pulay mixing of updated and previous charge densities.

  Evaluating partitioned Hartree potential by multipole expansion.
  | Analytical far-field extrapolation by fixed multipoles:
  | Hartree multipole sum: apparent total charge =  -0.612417E-06
  Summing up the Hartree potential.
  Time summed over all CPUs for potential: real work        2.124 s, elapsed        2.182 s
  | RMS charge density error from multipole expansion :   0.964723E-02
  | Average real-space part of the electrostatic potential :      0.31738763 eV

  Integrating Hamiltonian matrix: batch-based integration.
  Time summed over all CPUs for integration: real work       14.011 s, elapsed       14.306 s

  Updating Kohn-Sham eigenvalues, eigenvectors, occupation numbers, and Fermi level.
  Solving generalized eigenproblem
  Solving real symmetric generalised eigenvalue problem by standard ScaLAPACK.
  Using Cholesky factor for transformation
  Using 1-stage real ELPA solver
  Solving real symmetric generalised eigenvalue problem by standard ScaLAPACK.
  Using Cholesky factor for transformation
  Using 1-stage real ELPA solver
  Determining occupation numbers for Kohn-Sham eigenstates.
  | Chemical potential (Fermi level) in eV                 : -.46126082E+01
  | Error in electron count due to remaining E_F inaccuracy: 0.00000000E+00
  | Maximum occupation number of highest empty state:  0.00E+00

  Current spin moment of the entire structure :
  | N = N_up - N_down (sum over all k points):         0.00000
  | S (sum over all k points)                :         0.00000

  What follows are estimated values for band gap, HOMO, LUMO, etc.
  | They are estimated on a discrete k-point grid and not necessarily exact.
  | For converged numbers, create a DOS and/or band structure plot on a denser k-grid.

  Highest occupied state (VBM) at     -7.54276499 eV (relative to internal zero)
  | Occupation number:      1.00000000
  | K-point:       3 at    0.500000    0.000000    0.000000 (in units of recip. lattice)
  | Spin channel:        2

  Lowest unoccupied state (CBM) at    -3.48295263 eV (relative to internal zero)
  | Occupation number:      0.00000000
  | K-point:       2 at    0.000000    0.500000    0.000000 (in units of recip. lattice)
  | Spin channel:        2

  ESTIMATED overall HOMO-LUMO gap:      4.05981236 eV between HOMO at k-point 3 and LUMO at k-point 2
  | This appears to be an indirect band gap.
  | Smallest direct gap :      4.05983875 eV for k_point 2 at    0.000000    0.500000    0.000000 (in units of recip. lattice)
  | Direct gap HOMO spin channel :     1
  | Direct gap LUMO spin channel :     2
  The gap value is above 0.2 eV. Unless you are using a very sparse k-point grid,
  this system is most likely an insulator or a semiconductor.

  Total energy components:
  | Sum of eigenvalues            :         -43.92944534 Ha       -1195.38102797 eV
  | XC energy correction          :         -10.83910523 Ha        -294.94706015 eV
  | XC potential correction       :          13.92590733 Ha         378.94321892 eV
  | Free-atom electrostatic energy:         -33.32004492 Ha        -906.68455390 eV
  | Hartree energy correction     :          -1.98461508 Ha         -54.00412399 eV
  | van der Waals energy corr.    :           0.00000000 Ha           0.00000000 eV
  | Entropy correction            :           0.00000000 Ha           0.00000000 eV
  | ---------------------------
  | Total energy                  :         -76.14730324 Ha       -2072.07354709 eV
  | Total energy, T -> 0          :         -76.14730324 Ha       -2072.07354709 eV  <-- do not rely on this value for anything but (periodic) metals
  | Electronic free energy        :         -76.14730324 Ha       -2072.07354709 eV

  Derived energy quantities:
  | Kinetic energy                :          76.08455448 Ha        2070.36606633 eV
  | Electrostatic energy          :        -141.39275248 Ha       -3847.49255327 eV
  | Energy correction for multipole
  | error in Hartree potential    :          -0.01411640 Ha          -0.38412675 eV
  | Sum of eigenvalues per atom                           :        -597.69051399 eV
  | Total energy (T->0) per atom                          :       -1036.03677355 eV  <-- do not rely on this value for anything but (periodic) metals
  | Electronic free energy per atom                       :       -1036.03677355 eV

  Self-consistency convergence accuracy:
  | Change of charge/spin density : 0.5630E-07 0.3770E-06
  | Change of sum of eigenvalues  : -.5259E-05 eV
  | Change of total energy        : 0.1126E-08 eV

  Preliminary charge convergence reached. Turning off preconditioner.

  Writing Kohn-Sham eigenvalues.

  Spin-up eigenvalues:
  K-point:       1 at    0.000000    0.000000    0.000000 (in units of recip. lattice)

  State    Occupation    Eigenvalue [Ha]    Eigenvalue [eV]
      1       1.00000          -9.953329         -270.84386
      2       1.00000          -9.952364         -270.81760
      3       1.00000          -0.907392          -24.69139
      4       1.00000          -0.472776          -12.86489
      5       1.00000          -0.296344           -8.06392
      6       1.00000          -0.296341           -8.06385
      7       0.00000           0.022795            0.62028
      8       0.00000           0.069302            1.88580
      9       0.00000           0.119983            3.26492
     10       0.00000           0.119990            3.26509
     11       0.00000           0.237913            6.47395

  Spin-down eigenvalues:
  K-point:       1 at    0.000000    0.000000    0.000000 (in units of recip. lattice)

  State    Occupation    Eigenvalue [Ha]    Eigenvalue [eV]
      1       1.00000          -9.953329         -270.84386
      2       1.00000          -9.952364         -270.81760
      3       1.00000          -0.907392          -24.69139
      4       1.00000          -0.472776          -12.86489
      5       1.00000          -0.296344           -8.06392
      6       1.00000          -0.296341           -8.06385
      7       0.00000           0.022795            0.62028
      8       0.00000           0.069302            1.88580
      9       0.00000           0.119983            3.26492
     10       0.00000           0.119990            3.26509
     11       0.00000           0.237913            6.47395

  Current spin moment of the entire structure :
  | N = N_up - N_down (sum over all k points):         0.00000
  | S (sum over all k points)                :         0.00000

  What follows are estimated values for band gap, HOMO, LUMO, etc.
  | They are estimated on a discrete k-point grid and not necessarily exact.
  | For converged numbers, create a DOS and/or band structure plot on a denser k-grid.

  Highest occupied state (VBM) at     -7.54276499 eV (relative to internal zero)
  | Occupation number:      1.00000000
  | K-point:       3 at    0.500000    0.000000    0.000000 (in units of recip. lattice)
  | Spin channel:        2

  Lowest unoccupied state (CBM) at    -3.48295263 eV (relative to internal zero)
  | Occupation number:      0.00000000
  | K-point:       2 at    0.000000    0.500000    0.000000 (in units of recip. lattice)
  | Spin channel:        2

  ESTIMATED overall HOMO-LUMO gap:      4.05981236 eV between HOMO at k-point 3 and LUMO at k-point 2
  | This appears to be an indirect band gap.
  | Smallest direct gap :      4.05983875 eV for k_point 2 at    0.000000    0.500000    0.000000 (in units of recip. lattice)
  | Direct gap HOMO spin channel :     1
  | Direct gap LUMO spin channel :     2
  The gap value is above 0.2 eV. Unless you are using a very sparse k-point grid,
  this system is most likely an insulator or a semiconductor.

  Self-consistency cycle converged.

  End self-consistency iteration #    11       :  max(cpu_time)    wall_clock(cpu1)
  | Time for this iteration                    :        5.660 s           5.674 s
  | Charge density update                      :        3.397 s           3.404 s
  | Density mixing                             :        0.191 s           0.192 s
  | Hartree multipole update                   :        0.002 s           0.001 s
  | Hartree multipole summation                :        0.277 s           0.278 s
  | Integration                                :        1.789 s           1.792 s
  | Solution of K.-S. eqns.                    :        0.004 s           0.004 s
  | Total energy evaluation                    :        0.000 s           0.001 s
------------------------------------------------------------
  Obtaining max. number of non-zero basis functions in each batch .
  Evaluating KS electron density on previously omitted grid points, using the density matrix.
  Evaluating density matrix
  Evaluating density matrix
  Evaluating non-empirical van der Waals correction (Tkatchenko/Scheffler 2009).
  Performing Hirshfeld analysis of fragment charges and moments.
  ----------------------------------------------------------------------
  | Atom     1: C
  |   Hirshfeld charge        :     -0.00004745
  |   Free atom volume        :     38.37861207
  |   Hirshfeld volume        :     31.62779918
  |   Hirshfeld spin moment   :      0.00000000
  |   Hirshfeld dipole vector :     -0.00005651       0.00000010       0.00000000
  |   Hirshfeld dipole moment :      0.00005651
  |   Hirshfeld second moments:      0.10383755      -0.00000025      -0.00000000
  |                                 -0.00000025       0.10362600      -0.00000000
  |                                 -0.00000000      -0.00000000       0.27068384
  ----------------------------------------------------------------------
  | Atom     2: C
  |   Hirshfeld charge        :     -0.00004745
  |   Free atom volume        :     38.37861207
  |   Hirshfeld volume        :     31.62779918
  |   Hirshfeld spin moment   :      0.00000000
  |   Hirshfeld dipole vector :      0.00005651      -0.00000010       0.00000000
  |   Hirshfeld dipole moment :      0.00005651
  |   Hirshfeld second moments:      0.10383755      -0.00000025       0.00000000
  |                                 -0.00000025       0.10362600       0.00000000
  |                                  0.00000000       0.00000000       0.27068384
  ----------------------------------------------------------------------

  Converging periodic supercell size for vdw calculation.

  Total energy components:
  | Sum of eigenvalues            :         -43.92944534 Ha       -1195.38102797 eV
  | XC energy correction          :         -10.83910523 Ha        -294.94706015 eV
  | XC potential correction       :          13.92590733 Ha         378.94321892 eV
  | Free-atom electrostatic energy:         -33.32004492 Ha        -906.68455390 eV
  | Hartree energy correction     :          -1.98461508 Ha         -54.00412399 eV
  | van der Waals energy corr.    :          -0.00370198 Ha          -0.10073609 eV
  | Entropy correction            :           0.00000000 Ha           0.00000000 eV
  | ---------------------------
  | Total energy                  :         -76.15100522 Ha       -2072.17428319 eV
  | Total energy, T -> 0          :         -76.15100522 Ha       -2072.17428319 eV  <-- do not rely on this value for anything but (periodic) metals
  | Electronic free energy        :         -76.15100522 Ha       -2072.17428319 eV

  Derived energy quantities:
  | Kinetic energy                :          76.08455448 Ha        2070.36606633 eV
  | Electrostatic energy          :        -141.39275248 Ha       -3847.49255327 eV
  | Energy correction for multipole
  | error in Hartree potential    :          -0.01411640 Ha          -0.38412675 eV
  | Sum of eigenvalues per atom                           :        -597.69051399 eV
  | Total energy (T->0) per atom                          :       -1036.08714159 eV  <-- do not rely on this value for anything but (periodic) metals
  | Electronic free energy per atom                       :       -1036.08714159 eV
  Timings for VdW correction (Tkatchenko-Scheffler 2009 or later):
  | CPU time:        1.396 s, Wall clock time:        1.398 s.

  Energy and forces in a compact form:
  | Total energy uncorrected      :         -0.207217428318709E+04 eV
  | Total energy corrected        :         -0.207217428318709E+04 eV  <-- do not rely on this value for anything but (periodic) metals
  | Electronic free energy        :         -0.207217428318709E+04 eV

  ------------------------------------ 
  Start decomposition of the XC Energy 
  ------------------------------------ 
  Hartree-Fock part   :          0.000000000 Ha              0.000000000 eV
  ------------------------------------ 
  X Energy            :        -10.421134652 Ha           -283.573501948 eV
  C Energy GGA        :         -0.417970582 Ha            -11.373558207 eV
  Total XC Energy     :        -10.839105234 Ha           -294.947060155 eV
  LDA X and C from self-consistent density 
  X Energy LDA        :         -9.454021405 Ha           -257.257011520 eV
  C Energy LDA        :         -0.797406969 Ha            -21.698547632 eV
  ------------------------------------ 
  End decomposition of the XC Energy 
  ------------------------------------ 
  Post-scf processing of Kohn-Sham eigenvalues on a denser k-point grid.
  | Using dos_kgrid_factors to calculate post-scf total density of states.
  | Electron chemical potential:    -4.612608151650 eV.
  Integrating Hamiltonian matrix: batch-based integration.
  Time summed over all CPUs for integration: real work       13.999 s, elapsed       14.299 s
  Processing batch of k-points:     1     1     1
  Processing batch of k-points:     1     2     1
  Processing batch of k-points:     2     1     1
  Processing batch of k-points:     2     2     1
  | writing perturbative DOS (shifted by electron chemical potential) to file KS_dos_total.dat
  | writing perturbative DOS (raw data) to file KS_dos_total_raw.dat

------------------------------------------------------------------------------
  Final output of selected total energy values:

  The following output summarizes some interesting total energy values
  at the end of a run (AFTER all relaxation, molecular dynamics, etc.).

  | Total energy of the DFT / Hartree-Fock s.c.f. calculation      :          -2072.174283187 eV
  | Final zero-broadening corrected energy (caution - metals only) :          -2072.174283187 eV
  | For reference only, the value of 1 Hartree used in FHI-aims is :             27.211384500 eV

  Before relying on these values, please be sure to understand exactly which
  total energy value is referred to by a given number. Different objects may
  all carry the same name 'total energy'. Definitions:

  Total energy of the DFT / Hartree-Fock s.c.f. calculation:
  | Note that this energy does not include ANY quantities calculated after the
  | s.c.f. cycle, in particular not ANY RPA, MP2, etc. many-body perturbation terms.

  Final zero-broadening corrected energy:
  | For metallic systems only, a broadening of the occupation numbers at the Fermi
  | level can be extrapolated back to zero broadening by an electron-gas inspired
  | formula. For all systems that are not real metals, this value can be
  | meaningless and should be avoided.

------------------------------------------------------------------------------

------------------------------------------------------------
          Leaving FHI-aims.
          Date     :  20220221, Time     :  192945.734

          Computational steps:
          | Number of self-consistency cycles          :           11

          Detailed time accounting                     :  max(cpu_time)    wall_clock(cpu1)
          | Total time                                 :       69.053 s          69.340 s
          | Preparation time                           :        0.163 s           0.181 s
          | Grid partitioning                          :        0.056 s           0.058 s
          | Preloading free-atom quantities on grid    :        0.005 s           0.005 s
          | Free-atom superposition energy             :        0.031 s           0.032 s
          | Total time for integrations                :       22.450 s          22.504 s
          | Total time for solution of K.-S. equations :        0.050 s           0.052 s
          | Total time for density update              :       37.396 s          37.476 s
          | Total time for mixing & preconditioning    :        2.151 s           2.158 s
          | Total time for Hartree multipole update    :        0.017 s           0.019 s
          | Total time for Hartree multipole sum       :        3.029 s           3.036 s
          | Total time for total energy evaluation     :        0.002 s           0.007 s
          | Total time for scaled ZORA corrections     :        0.000 s           0.000 s
          | Total time for vdW correction              :        1.396 s           1.398 s

          Have a nice day.
------------------------------------------------------------
